ITEM: TIMESTEP
0
ITEM: NUMBER OF ATOMS
12
ITEM: BOX BOUNDS pp pp pp
-2.5000000000000000e+01 2.5000000000000000e+01
-2.5000000000000000e+01 2.5000000000000000e+01
-2.5000000000000000e+01 2.5000000000000000e+01
ITEM: ATOMS id type x y z
1 1 6.06886 2.41981 -0.446266
2 2 6.98968 2.6441 -0.371261
3 3 7.53638 1.73181 -0.291972
4 4 7.78984 1.54398 0.769756
5 5 6.89278 1.88762 1.2778
6 6 6.23659 1.29406 0.808563
7 7 6.53224 0.333431 0.861763
8 8 7.0612 0.23081 1.64907
9 9 6.49108 0.656202 2.46846
10 10 5.56075 0.573438 2.20956
11 11 5.18519 -0.287683 1.7125
12 12 5.65542 -1.02758 1.35203
ITEM: TIMESTEP
50000000
ITEM: NUMBER OF ATOMS
12
ITEM: BOX BOUNDS pp pp pp
-2.5000000000000000e+01 2.5000000000000000e+01
-2.5000000000000000e+01 2.5000000000000000e+01
-2.5000000000000000e+01 2.5000000000000000e+01
ITEM: ATOMS id type x y z
1 1 8.86199 0.945446 0.666987
2 2 8.36225 0.100464 0.500012
3 3 7.36835 0.38701 0.248282
4 4 7.34442 1.43277 0.307868
5 5 7.38549 1.51539 1.27165
6 6 6.82954 0.864028 1.77763
7 7 6.13555 0.295626 1.28766
8 8 5.69193 0.821142 0.46566
9 9 5.82186 1.79574 0.698951
10 10 5.4759 1.86076 1.73765
11 11 4.74822 1.17175 1.74716
12 12 3.97451 0.809874 1.29048
