LAMMPS (28 Feb 2019)
units lj

variable seed equal 1
variable dt equal 0.005
variable tau equal ${dt}*100
variable tau equal 0.005*100
timestep ${dt}
timestep 0.005

variable rise equal 1.5
variable rise_cut equal ${rise}*2.0
variable rise_cut equal 1.5*2.0
variable repulsive_dist equal 1.5
variable repulsive_cut equal ${repulsive_dist}*1.12246204831
variable repulsive_cut equal 1.5*1.12246204831

atom_style bond
dimension 3
read_data trajectory_polymer_unique_eps6.0_1.lammpsdata
  orthogonal box = (-25 -25 -25) to (25 25 25)
  1 by 1 by 1 MPI processor grid
  reading atoms ...
  12 atoms
  reading velocities ...
  12 velocities
  scanning bonds ...
  1 = max bonds/atom
  reading bonds ...
  11 bonds
  2 = max # of 1-2 neighbors
  2 = max # of 1-3 neighbors
  4 = max # of 1-4 neighbors
  6 = max # of special neighbors

bond_style harmonic
bond_coeff * 100.0 1.0

pair_style lj/cut ${rise_cut}
pair_style lj/cut 3
# type1 type2 epsilon distance cutoff
pair_coeff * * 3.0 ${repulsive_dist} ${repulsive_cut}
pair_coeff * * 3.0 1.5 ${repulsive_cut}
pair_coeff * * 3.0 1.5 1.683693072465
pair_coeff 1 5 ${eps} ${rise}
pair_coeff 1 5 7.5 ${rise}
pair_coeff 1 5 7.5 1.5
pair_coeff 2 6 ${eps} ${rise}
pair_coeff 2 6 7.5 ${rise}
pair_coeff 2 6 7.5 1.5
pair_coeff 3 7 ${eps} ${rise}
pair_coeff 3 7 7.5 ${rise}
pair_coeff 3 7 7.5 1.5
pair_coeff 4 8 ${eps} ${rise}
pair_coeff 4 8 7.5 ${rise}
pair_coeff 4 8 7.5 1.5
pair_coeff 5 9 ${eps} ${rise}
pair_coeff 5 9 7.5 ${rise}
pair_coeff 5 9 7.5 1.5
pair_coeff 6 10 ${eps} ${rise}
pair_coeff 6 10 7.5 ${rise}
pair_coeff 6 10 7.5 1.5
pair_coeff 7 11 ${eps} ${rise}
pair_coeff 7 11 7.5 ${rise}
pair_coeff 7 11 7.5 1.5
pair_coeff 8 12 ${eps} ${rise}
pair_coeff 8 12 7.5 ${rise}
pair_coeff 8 12 7.5 1.5
pair_modify shift yes
special_bonds lj 0.0 0.5 1.0
  2 = max # of 1-2 neighbors
  2 = max # of 1-3 neighbors
  4 = max # of 1-4 neighbors
  6 = max # of special neighbors


atom_modify sort 1 0.5

velocity all create 1.0 ${seed}
velocity all create 1.0 1
fix 1 all nvt temp 1.0 1.0 ${tau}
fix 1 all nvt temp 1.0 1.0 0.5
fix 2 all plumed plumedfile ${plumed_file}
fix 2 all plumed plumedfile helix_fisst_fmin-2.0_fmax8.0_eps7.5_50000000.plumed.dat

dump 1 all dcd 5000 ${outprefix}.dcd
dump 1 all dcd 5000 helix_fisst_example.dcd
dump 2 all atom ${steps} ${outprefix}.lammpstrj
dump 2 all atom 50000000 ${outprefix}.lammpstrj
dump 2 all atom 50000000 helix_fisst_example.lammpstrj
dump_modify 2 sort id scale no

thermo 1000

run ${steps}
run 50000000
Neighbor list info ...
  update every 1 steps, delay 10 steps, check yes
  max neighbors/atom: 2000, page size: 100000
  master list distance cutoff = 3.3
  ghost atom cutoff = 3.3
  binsize = 1.65, bins = 31 31 31
  1 neighbor lists, perpetual/occasional/extra = 1 0 0
  (1) pair lj/cut, perpetual
      attributes: half, newton on
      pair build: half/bin/newton
      stencil: half/bin/3d/newton
      bin: standard
Per MPI rank memory allocation (min/avg/max) = 5.177 | 5.177 | 5.177 Mbytes
Step Temp E_pair E_mol TotEng Press 
       0            1   -3.6089506   0.35796656    -1.875984 -0.00021958074 
    1000    1.0876823   -4.0190049   0.42880034   -2.0946414 -0.00020914531 
    2000    1.0692022   -3.4604589   0.63825588   -1.3520501 -0.00024136806 
    3000    1.0291079   -2.9347589   0.27840719   -1.2413283 0.00014277644 
    4000    1.3492108   -3.9484777   0.33349931   -1.7598136 5.2924513e-06 
    5000   0.94566535   -3.2305518   0.64896156   -1.2813004 -0.0001495094 
    6000   0.90531861   -2.1752119   0.71771035  -0.21268842 -0.00010095505 
    7000    1.2808519    -1.688945   0.24201494   0.31424138 0.00035572802 
    8000    1.2046888   -1.7635273   0.67536627   0.56828613 0.00031774264 
    9000   0.57376942   -2.1977201    0.7297192  -0.67906799 -9.5891343e-05 
   10000   0.84155057   -4.0420617   0.37592944   -2.5090002 -1.5467265e-05 
   11000    1.0210369   -3.7225116   0.68769532   -1.6308905 0.00030127457 
   12000   0.54919434   -2.8256918   0.73363168   -1.3369179 -3.7900961e-06 
   13000     1.112484   -3.9293977    0.4238151   -1.9759171 0.00036044782 
   14000   0.80217575   -3.5395522   0.64358402   -1.7929765 -8.1692454e-05 
   15000    1.4979768   -4.2564135   0.88887348   -1.3078219 -0.00049834897 
   16000   0.77412877   -3.9581232   0.40423226   -2.4894639 2.8717485e-05 
   17000    1.1817697   -3.5346026   0.69284239   -1.2168269 -0.00031994085 
   18000   0.61852955   -3.1108881   0.17333042   -2.0870796 0.00036490023 
   19000   0.75712179   -3.7365487   0.41191598   -2.2835903 -0.00014914664 
   20000   0.76595284   -3.2557005      1.10108   -1.1014353 -0.00022587324 
   21000   0.79342352   -3.6029692   0.27902059   -2.2329912 0.00020775983 
   22000   0.41493617   -1.5599268   0.61121922  -0.37817036 -0.00020607121 
   23000    0.8657512   -2.4856369   0.46209096  -0.83313807 -9.6058697e-06 
   24000    1.1098101   -4.2096815   0.40446798   -2.2792246 -0.00021397147 
   25000   0.93881846    -3.994015   0.27468719   -2.4284525 0.00014278061 
   26000   0.71709733   -3.7538937   0.67020628   -2.0976786 0.00042686061 
   27000    1.2774256   -3.4845343   0.34632259   -1.3817516 0.00025112577 
   28000    1.2456667   -2.6382085   0.33154212  -0.59387463 8.4917912e-05 
   29000   0.86962904   -1.7308844   0.36832505  -0.16681944 5.8478971e-05 
   30000    1.0531702    -2.270273   0.84067576  0.018511768 -9.804348e-05 
   31000    0.5895789   -1.5762845    0.6879911  -0.07762241 0.00039548144 
   32000   0.83975292   -2.4474152   0.48399962  -0.80875536 0.00029917895 
   33000    1.6443207   -2.1773723   0.75918431   0.84275301 -0.00012610054 
   34000   0.83112486   -3.3414843   0.34109238   -1.8575953 -7.9702243e-05 
   35000   0.94343164   -2.7243521   0.41564546   -1.0114881 0.00028742351 
   36000   0.58032866   -3.4899838   0.54331147   -2.1487204 0.00054439152 
   37000    1.3205131    -3.904768   0.55226378   -1.5367987 -6.1136402e-05 
   38000    1.4077463   -4.1301656   0.51366691   -1.6808476 6.0667816e-05 
   39000   0.97631348   -4.0461999   0.42812956   -2.2756393 -0.00011630113 
   40000    1.1939324   -3.8526066   0.52981308   -1.6811364 -0.00025251145 
   41000    1.2779893   -1.6518687    0.5895615    0.6949281 -0.00028982093 
   42000   0.99143625   -2.1258241   0.50419367  -0.25840554 1.9675633e-05 
   43000    1.1778322   -1.3681973   0.42536971   0.67669174 -0.00017811399 
   44000   0.86084492 0.0032353058   0.43598117    1.6228782 0.00014395371 
   45000   0.86946042            0   0.45226451    1.6477726 3.8392828e-05 
   46000   0.89137637            0   0.30552323    1.5311657 9.9174742e-05 
   47000    1.0107081            0   0.75753992    2.1472636 -0.00015379168 
   48000    1.4215293 -0.00056640728   0.39400786    2.3480443 8.0302413e-05 
   49000   0.86206969            0   0.67202019     1.857366 -3.8187645e-05 
   50000     1.031053  0.057655279   0.57978032    2.0551335 0.00011999807 
   51000   0.90523365 0.0070866955   0.86802355    2.1198065 -4.9236229e-05 
   52000    1.4438737            0   0.63785186    2.6231783 0.00011750854 
   53000    1.2834798  0.001202189   0.56837689    2.3343638 0.00013220346 
   54000   0.72485349            0   0.58157931    1.5782529 -5.013357e-05 
   55000   0.57576373 0.00061953058   0.56497489    1.3572696 9.6864987e-05 
   56000   0.71599745            0   0.45402375    1.4385202 4.8650306e-05 
   57000   0.98886325  0.006548551   0.65507739    2.0213129 -5.6782128e-05 
   58000    1.1764348            0   0.31080964    1.9284075 0.00011679826 
   59000   0.95315554            0   0.52849681    1.8390857 0.00012309159 
   60000    1.2900302            0   0.83627266    2.6100642 -7.3453688e-05 
   61000    1.0022703  0.020296082   0.78814394    2.1865617 -2.0026324e-05 
   62000    1.0318993  0.049169784   0.52893379    1.9969651 3.7310211e-06 
   63000   0.66771839            0   0.73736237    1.6554752 -0.00026772982 
   64000    1.0358068            0   0.45719341    1.8814278 0.00010338765 
   65000   0.89977885            0   0.53139755    1.7685935 -3.148521e-05 
   66000    1.6498955            0   0.47582509    2.7444314 3.1031241e-05 
   67000   0.82910094            0   0.47278591    1.6127997 0.0002610222 
   68000   0.92468221            0   0.64887728    1.9203153 5.2560173e-05 
   69000    1.4866932  0.047786536   0.97697755    3.0689672 -5.0536654e-05 
   70000    1.2824878            0    0.8776219    2.6410427 -0.00020280794 
   71000    1.0357273            0    1.4895684    2.9136935 -0.00020308144 
   72000    1.2092615 0.00057943118   0.57927775    2.2425918 -5.1216597e-05 
   73000   0.75452128            0   0.58504115    1.6225079 -5.9982699e-05 
   74000   0.93626359            0    0.1679563    1.4553187 0.00019178272 
   75000   0.64881157            0    0.5685531     1.460669 -4.8256825e-05 
   76000   0.64264117 0.00071052153   0.77033794    1.6546801 -7.396267e-05 
   77000    1.1502225            0   0.73960458    2.3211605 -4.5271275e-05 
   78000    1.1926746            0   0.50265204    2.1425796 -7.2662797e-05 
   79000   0.71564344            0    1.0443171    2.0283269 -0.00017290189 
   80000   0.74370003 0.0077123105   0.78345311     1.813753 -2.0923075e-05 
   81000    1.7010761            0   0.28960579    2.6285855 0.00010432548 
   82000    1.1398852  0.071837829   0.46381387    2.1029938 9.0641278e-05 
   83000   0.72715364   0.03340976   0.19125694     1.224503 0.0001764106 
   84000   0.85361159            0    0.7351786    1.9088945 -8.2760114e-05 
   85000    1.3099498            0   0.72854117    2.5297221 4.4023662e-05 
   86000    1.2622125 -0.016880123   0.41443317    2.1330953 0.00010027521 
   87000   0.98770419 -0.00019044255   0.53028668    1.8881895 6.5774497e-05 
   88000   0.92882495   -1.5941307   0.47259458   0.15559815 -0.00012601482 
   89000   0.63711041   -3.3352901   0.86321029    -1.596053 -0.0001801494 
   90000   0.99507078   -3.7394532   0.61384832   -1.7573826 -0.00019216889 
   91000   0.62125549   -4.1965331   0.28944687   -3.0528599 1.8065535e-05 
   92000   0.86142817   -3.6989605   0.58611143   -1.9283854 -5.4259486e-05 
   93000    1.5072302   -3.5446155   0.27891392     -1.19326 -6.6479235e-05 
   94000   0.82386197   -3.8983539   0.54663503   -2.2189086 -0.00020526422 
   95000    0.8914258   -3.7066616   0.64392935   -1.8370218 7.4840212e-05 
   96000   0.95775877   -3.3598639   0.38779033   -1.6551552 0.00016077506 
   97000   0.97727951   -3.7729416    0.2747536   -2.1544287 -2.2488912e-05 
   98000   0.98980172   -3.6496285   0.25702826   -2.0316229 -7.9639589e-05 
   99000   0.77474529   -3.8967396   0.48265028   -2.3488146 7.524993e-06 
  100000   0.87046912   -3.7724768   0.82657851   -1.7490032 0.0001302038 
  101000    1.0198243   -3.8032821   0.81827218   -1.5827515 -0.0005749417 
  102000    1.1378988   -3.6245788   0.73194115   -1.3280268 -0.00012113823 
  103000     1.034128   -3.9072654   0.43720896   -2.0481304 0.00017161533 
  104000   0.84709808    -3.824604   0.63550479   -2.0243394 -5.9066933e-05 
  105000    1.1642348   -4.0685035   0.51344127   -1.9542394 -3.9806241e-05 
  106000    1.7093423   -3.9066242   0.48346752   -1.0728111 0.00035658695 
  107000   0.79250722   -4.0355005   0.33416641   -2.6116367 -5.476766e-05 
  108000    1.2593921   -3.6710568   0.31228094   -1.6271117 0.00015610672 
  109000    1.4302102   -3.4981874   0.88384251  -0.64780588 0.00050821984 
  110000   0.91491252    -3.155111   0.32299493   -1.5741113 -1.4341617e-05 
  111000   0.96097961   -3.9594535   0.52368693   -2.1144196 -2.185824e-05 
  112000    1.1584626   -3.1976954   0.51555767   -1.0892517 0.00034387962 
  113000    1.3960263   -3.9996086   0.34159059   -1.7384818 3.7002041e-05 
  114000    0.8136512    -3.585628     0.399235   -2.0676227 0.00020711097 
  115000   0.96278866   -3.6063218    0.3504355   -1.9320519 7.3995167e-08 
  116000   0.95921942    -3.624271   0.32863336   -1.9767109 -0.00023920588 
  117000    1.0879089   -4.3301552   0.59733869   -2.2369417 -9.3352168e-05 
  118000    1.2194654   -4.0565176   0.63498186   -1.7447708 -0.00028633876 
  119000   0.83984842   -3.4469517   0.70511378   -1.5870464 0.00018912768 
  120000    1.3605991   -2.0361197   0.31175756   0.14646162 0.0002214703 
  121000    1.0547782   -2.3384394    0.4842834    -0.403836 0.00027231323 
  122000    1.3019593   -3.6558262   0.49808443   -1.3675478 0.00027029709 
  123000    1.2930294   -3.5716516   0.53136388   -1.2623722 0.00011807699 
  124000   0.84581775   -4.2303476   0.63677426   -2.4305739 -0.0003533277 
  125000    1.3279075   -4.1623978   0.36749286   -1.9690321 -2.3082741e-05 
  126000     1.052947   -3.8426403   0.31622734   -2.0786109 0.00012523597 
  127000    1.5118346   -2.5519311   0.61193496   0.13877646 -0.00031733686 
  128000    0.9084351   -1.4569337   0.37828183   0.17044635 -3.215814e-05 
  129000    1.0193323   -4.2722854   0.45431338     -2.41639 -0.000107294 
  130000   0.82654713   -2.8156643   0.56176862   -1.1173933 -9.7764617e-05 
  131000   0.77925374   -4.2722068   0.49725874   -2.7034741 5.800838e-05 
  132000    1.2323589    -3.377321    0.4983864   -1.1844412 3.2404647e-05 
  133000   0.96829139    -4.062543   0.55028306   -2.1808593 0.00034074121 
  134000    1.1138763    -2.465064    0.5020762  -0.43140783 0.00040666455 
  135000     1.020062   -3.7986566    0.5697771   -1.8262943 8.6434513e-05 
  136000    1.1567726   -1.1505993   0.45902193   0.89898491 -0.00014887452 
  137000    1.2344006   -3.9457385   0.56200567   -1.6864319 0.00025837633 
  138000    1.1597794   -4.3733903    0.9469733   -1.8317203 -0.00018170516 
  139000    1.0931176   -4.1008838   0.23370633   -2.3641407 0.00017371822 
  140000   0.95018635   -4.1406899   0.78360886   -2.0505748 9.0758466e-05 
  141000    1.4993039   -4.4495714   0.47816029   -1.9098682 0.00021210833 
  142000    1.1233006   -3.8590609   0.51452316   -1.7999994 8.9828574e-05 
  143000   0.63940074   -3.9811244   0.61535829   -2.4865901 9.2739636e-05 
  144000     0.998833   -3.6746987   0.57993031    -1.721373 -1.5576376e-05 
  145000    1.1431291   -3.2291293   0.95228383  -0.70504304 0.00074221357 
  146000    1.1614262   -3.2712665   0.22997828   -1.4443271 0.00031624538 
  147000   0.90795718   -4.3854183   0.69969833   -2.4372789 -0.00024633163 
  148000   0.92105955   -3.6158707   0.61723293   -1.7321809 -0.0001311511 
  149000    1.0082784   -3.7280557   0.57223365   -1.7694393 -3.6230976e-05 
  150000    1.2359868    -4.257605   0.42015703   -2.1379661 0.00012338534 
  151000    1.4041302   -4.3407984   0.79967651    -1.610443 -0.00023455251 
  152000    0.9063759   -4.3163606   0.61007419   -2.4600196 -2.416129e-05 
  153000   0.68574145   -3.3437356   0.37940435   -2.0214367 0.00020553426 
  154000   0.96592428   -4.0526185   0.86349128   -1.8609813 0.0001478504 
  155000     1.896263     -3.79256   0.29275146  -0.89244692 -4.1446216e-05 
  156000    1.2340849   -4.1685212   0.48661227   -1.9850422 7.5431086e-05 
  157000   0.93461721   -1.8231185   0.57523473  0.037214915 7.2636894e-05 
  158000    0.7793699   -1.8236405   0.18877559  -0.56323126 0.00027560713 
  159000    1.0211018   -2.3722931   0.51816113  -0.45011697 5.2216287e-05 
  160000    1.1601117   -4.0405588   0.40875822   -2.0366471 -6.3796543e-05 
  161000   0.89215212   -3.6968518   0.93676333   -1.5333793 -9.9915723e-05 
  162000   0.85545666   -3.3108101   0.44363136   -1.6909258 -2.8147738e-05 
  163000     1.225223   -4.0425432   0.38303061   -1.9748309 0.00038401931 
  164000   0.98710395   -2.8042808   0.31499575   -1.1320171 -8.5961903e-05 
  165000   0.98476291   -3.8157338   0.40798729   -2.0536975 7.6649621e-05 
  166000    0.7526654     -3.61964   0.26814082   -2.3165843 6.936828e-05 
  167000   0.76360586   -4.2276167   0.59609732   -2.5815613 0.00046373036 
  168000    1.5289625   -4.1323675   0.34449127   -1.6855527 -5.1935275e-05 
  169000   0.74212762   -3.6534621   0.27396818   -2.3590684 -2.7211953e-05 
  170000   0.89683193   -3.8396881   0.68596024    -1.920584 -5.4972263e-05 
  171000   0.98002761   -3.4071907   0.44796715   -1.6116855 -0.00020320232 
  172000    0.6631548   -3.9719468   0.53310729   -2.5270016 -0.00011520952 
  173000   0.77513755   -4.0667663    0.5738329   -2.4271193 -0.00023133821 
  174000   0.95419858   -3.7283379   0.63199676    -1.784318 0.00039160252 
  175000   0.94757212   -3.5170061   0.81110373   -1.4029907 -8.22583e-05 
  176000    1.0492556   -3.7032918   0.54565083   -1.7149145 -0.00031887125 
  177000   0.81439324   -3.9038406   0.53667404   -2.2473758 -3.3493879e-05 
  178000    1.0384232   -3.9995235   0.32747468    -2.244217 -1.6508906e-05 
  179000   0.83745472    -3.861958   0.34371685   -2.3667409 0.00011237144 
  180000    1.1035794   -4.0061638   0.30835856   -2.1803836 0.00018340908 
  181000   0.94495041   -4.1471598    0.3861892   -2.4616638 -4.315237e-05 
  182000   0.91104228   -4.2382282   0.38496396   -2.6005811 7.9162998e-05 
  183000    1.0500693    -3.075627   0.34370987   -1.2880719 9.2765006e-05 
  184000   0.85521572   -3.5397397   0.67338049   -1.6904376 0.00011469934 
  185000    1.1373708   -4.1146714   0.40433935   -2.1464472 0.00027328619 
  186000    1.1326698   -4.0910353    0.8567138   -1.6769006 -5.7670868e-05 
  187000   0.79252041   -4.3409359   0.48753621   -2.7636842 -9.7484057e-06 
  188000   0.95807613   -3.3238017   0.50716328   -1.4992837 -3.5700247e-05 
  189000     1.176328   -3.8512871    0.4047678   -1.8290683 0.00020967537 
  190000    1.1480733   -4.2884096    1.4554023   -1.2544065 -4.5594685e-05 
  191000   0.91265344   -3.9347529     0.376021   -2.3038334 0.00010722161 
  192000    1.4733764   -3.7509563    0.3292701   -1.3957936 0.00027632824 
  193000    1.3946259    -3.530274   0.36808608   -1.2445772 0.00023497704 
  194000   0.68956771   -3.3344319   0.28906906   -2.0972072 7.2936168e-05 
  195000   0.94631316   -4.1909288   0.38679823     -2.50295 4.9627178e-05 
  196000     1.003377   -3.7528414   0.42729403   -1.9459041 8.5100078e-05 
  197000   0.88619915     -3.44545   0.40219115    -1.824735 0.00018425129 
  198000    1.5688661   -4.2871816   0.57476225   -1.5552284 -0.00032082686 
  199000   0.98513781   -3.9612354    0.4028451   -2.2038258 -9.3844621e-06 
  200000   0.90049098   -4.1097861   0.43478592   -2.4368251 -9.3924293e-05 
  201000   0.83206565    -4.171714    0.5315789   -2.4960449 2.8424455e-05 
  202000   0.83794071   -3.5331957   0.42640839   -1.9546188 0.00013569725 
  203000    1.6224515   -4.0326233    0.3865289   -1.4152236 0.00015087899 
  204000   0.69128216   -3.9249879   0.73911442   -2.2353606 -0.00022546348 
  205000    1.4498932   -3.6762195   0.27355426   -1.4090621 0.00035297157 
  206000    1.3068469   -4.1356782   0.25948181   -2.0792819 3.4332157e-05 
  207000   0.72370157   -3.6915767   0.62295885   -2.0735282 -0.00013834862 
  208000    1.3298152   -3.1650643   0.51594693   -0.8206215 0.00046658823 
  209000   0.76594171   -2.0740838   0.40049764  -0.62041634 0.0001021915 
  210000   0.87701459   -1.5753779   0.27259567  -0.09688719 1.5479715e-05 
  211000   0.78274359   -1.6251328   0.51894203 -0.029918328 0.00021753361 
  212000   0.91148011   -3.4435915    0.4836302   -1.7066762 0.00029442768 
  213000   0.75724745   -3.9916316    0.5044444    -2.445972 -0.0001895429 
  214000    1.0817944   -3.9412655   0.88580417   -1.5679941 0.00017017629 
  215000   0.82381807   -4.1764029   0.68396447   -2.3596885 -0.00016689669 
  216000    0.9850737   -3.7503567   0.22733759   -2.1685427 5.3179204e-05 
  217000   0.95585395   -4.1154259   0.43879219   -2.3623346 1.1944685e-05 
  218000    1.0776062    -4.040226   0.65491368   -1.9036038 0.00025173111 
  219000    1.0210484   -3.7567927    0.3446984   -2.0081527 -3.5533655e-05 
  220000   0.59777325   -4.1507847   0.25988766   -3.0689588 -0.00012125094 
  221000    1.0755335   -3.6922628   0.33671088   -1.8766934 0.00031225486 
  222000      1.21296   -3.9519155   0.19365429   -2.0904413 -6.0553354e-05 
  223000    0.7964573   -3.4859444   0.55213251   -1.8386831 0.00020598156 
  224000    1.2171424   -4.0901185   0.18210086   -2.2344468 -0.00013580792 
  225000    1.0400123   -3.9026733   0.40685881   -2.0657976 0.00013140041 
  226000   0.93128974   -3.7460144   0.83995558   -1.6255355 0.0001350833 
  227000   0.54602048   -3.7864552   0.35270458   -2.6829724 0.0002407612 
  228000   0.88903409   -4.2395555    1.0615407   -1.9555929 -0.00018074222 
  229000   0.80640774   -4.4439214   0.24438786   -3.0907229 -0.0002117937 
  230000    1.0870931   -4.0527284    0.8213729   -1.7366024 -6.858792e-05 
  231000   0.80479372    -4.147823   0.33786476   -2.7033669 0.00015312464 
  232000   0.84285568   -3.8974094   0.91668916   -1.8217937 -0.00029932601 
  233000    1.0251409   -4.3442272   0.19771616   -2.7369423 3.3849655e-05 
  234000    1.4292337   -4.0940826   0.35856804   -1.7703182 -9.2344809e-05 
  235000   0.71771985   -3.4726313    0.1956929   -2.2900736 0.00028216395 
  236000   0.73428883   -3.5055525   0.31189397   -2.1840114 -0.00012475525 
  237000   0.84550999   -4.2762149    0.8940595   -2.2195791 -0.00020956605 
  238000    1.0566381   -3.3269405   0.39972403   -1.4743391 0.00010229663 
  239000    1.1359224   -3.2887693   0.17449031   -1.5523857 0.00058831482 
  240000   0.91275433   -4.0696164   0.20478021    -2.609799 0.00010843116 
  241000     1.190078   -3.5573306    0.4600868   -1.4608865 -6.9772398e-05 
  242000    1.1806021   -4.1687425    0.4328712   -2.1125435 -3.2943192e-05 
  243000    1.0927171   -3.3510303   0.47249153   -1.3760528 -0.00020296419 
  244000   0.73051699   -3.3962885   0.38273372   -2.0090939 7.4358342e-05 
  245000    0.4840392    -3.800217   0.42969454   -2.7049686 -0.00018350416 
  246000    0.9709818   -3.6983082   0.29690316   -2.0663051 -0.00021590331 
  247000    1.1142489   -3.6611459     0.235008   -1.8940457 -0.00019145705 
  248000   0.81665109   -4.3431332   0.56541105   -2.6548269 -0.0001674684 
  249000    1.1389117   -3.9295495   0.58939333   -1.7741525 -9.99984e-05 
  250000   0.80132285   -3.7689756     0.176564   -2.4905927 0.00019481925 
  251000   0.72814804   -3.4666989   0.32497008   -2.1405252 -0.00018231057 
  252000    1.6267055   -4.2410795   0.64082002   -1.3635395 -0.00021359956 
  253000   0.34608894   -3.9079715   0.94242974   -2.4896694 -0.00030384621 
  254000    1.3811673    -4.117437   0.71626616   -1.5020658 3.6176502e-05 
  255000     1.666862   -3.0846544   0.47132916  -0.32138995  -0.00013061 
  256000    1.0181359   -3.5764096   0.45757629   -1.7188965 -4.3123793e-05 
  257000   0.78146537   -4.1000414   0.30106278   -2.7244637 -0.00016910818 
  258000    1.0978458   -4.1648537   0.63341613   -2.0218996 -0.00033763357 
  259000    1.1562615   -3.2608967   0.92376032  -0.74727687 -3.7682763e-05 
  260000   0.73667008   -3.7874941   0.62759115   -2.1469816 -0.00033120058 
  261000    1.0744467   -4.4662637   0.37891329   -2.6099861 -0.00012077018 
  262000   0.97896898   -3.2685934   0.26908124   -1.6534298 -6.8930991e-05 
  263000   0.78022144   -4.1535372   0.45900692   -2.6217258 0.00028493886 
  264000    1.4921015   -3.6997326   0.33838812    -1.309705 6.707259e-05 
  265000   0.79144815   -3.9860305   0.37425296   -2.5235363 -0.00023951425 
  266000   0.99550431   -3.9704689   0.35324381   -2.2484066 -0.00014151292 
  267000    1.2459455    -3.798262   0.74066085   -1.3444261 2.4220033e-05 
  268000    1.0772677   -4.3466994   0.61389599   -2.2515602 7.5400369e-05 
  269000   0.64291384   -3.8755363   0.65671418   -2.3348156 0.00030888938 
  270000    1.0857998   -4.0243444   0.28316593   -2.2482038 0.00022600048 
  271000   0.67043562    -4.185347   0.25501796   -3.0084801 0.00027416782 
  272000    1.1094935     -3.45042   0.47760537   -1.4472611 0.00014387438 
  273000    1.0895568   -3.7765518   0.65242078   -1.6259904 0.0002099317 
  274000   0.80049866   -3.5649994   0.39339542   -2.0709183 -0.00023366077 
  275000    1.3124408   -3.4916805   0.35255591   -1.3345185 3.3213372e-05 
  276000    1.3718211   -4.1517173    0.5356845   -1.7297788 3.4130862e-06 
  277000    1.0678202   -3.8337506   0.37472427   -1.9907735 0.00013893605 
  278000    1.0062327   -3.2057163   0.67556045   -1.1465858 -0.00012695914 
  279000   0.97446093   -4.1708557    0.5602236   -2.2707483 -0.00010202975 
  280000    1.2543579   -3.9276506   0.61820945   -1.5846991 -0.00018650758 
  281000   0.74285293   -4.0009334   0.26797202   -2.7115386 0.00013304075 
  282000    1.0622444   -2.7150598   0.68692265  -0.56755111 0.0001686985 
  283000     1.041126   -4.1706745   0.52161767   -2.2175085 -0.00022909308 
  284000    1.3487895   -3.9838976    0.3108069   -1.8185051 0.00020430158 
  285000   0.83586067    -4.211637   0.50509355   -2.5572351 -0.00035883479 
  286000   0.72644972   -3.9166118   0.52804645    -2.389697 8.2412722e-05 
  287000   0.74004114   -4.0729213   0.84741705   -2.2079477 -0.00015477063 
  288000   0.67849623   -4.3022498   0.32165258   -3.0476649 -8.8201886e-05 
  289000    1.1797113   -3.6597331   0.41903389   -1.6185961 0.00039845623 
  290000   0.87387781   -4.1124069   0.78460936   -2.1262156 -0.0003353854 
  291000   0.89372314   -4.0024972    0.7298616   -2.0437663 0.00020495104 
  292000    1.0589757   -3.7643252   0.66275771    -1.645476 0.00019993192 
  293000    1.2057614   -3.8690796    1.1654582   -1.0456995 -0.00042138352 
  294000   0.92546047    -4.066882   0.56564692    -2.228727 2.8224474e-05 
  295000    1.0437614     -4.11349   0.60871181   -2.0696062 -0.00011460415 
  296000    0.8791768   -3.9896806   0.20720593   -2.5736066 -0.00023912428 
  297000    1.1441372   -3.9623565   0.54332287    -1.845845 3.7016125e-05 
  298000    1.0949148   -3.1926708   0.28126982   -1.4058931 2.597793e-05 
  299000   0.95143086   -4.1331126   0.37958791   -2.4453072 0.00013819848 
  300000   0.81228195   -3.6602834   0.54444044   -1.9989553 -0.00017512848 
  301000   0.65019179   -2.9923004   0.52627435   -1.5720123 -0.00031851275 
  302000   0.73285037   -3.7846306   0.72976065   -2.0472006 -0.000232153 
  303000    1.8391217   -3.9441883   0.43696258  -0.97843342 -0.00010564359 
  304000   0.98748865    -4.045876   0.51297153   -2.1751075 -0.00035280061 
  305000    1.5029561   -3.3415938   0.68403084  -0.59099836 -9.283611e-05 
  306000   0.72992015   -3.8511127   0.56944623   -2.2780263 -0.00034677646 
  307000    1.2710786   -3.5497405    0.4427287   -1.3592787 -4.618264e-05 
  308000   0.92308876   -3.9548874   0.71637928    -1.969261 -0.00052092432 
  309000    1.1977269   -3.8617205   0.36971514   -1.8451309 -0.00029247339 
  310000   0.84012534   -3.3814579    1.0220887   -1.2041968 -0.00041562328 
  311000    1.1199733   -4.0438423   0.54191739   -1.9619616 0.00030374789 
  312000   0.45648652   -4.1006892   0.53947725    -2.933543 -0.00014165524 
  313000     1.410162   -3.5906739   0.23921989   -1.4124812 0.00015512551 
  314000    1.1799969   -3.9145599   0.69861283   -1.5934513 6.3076406e-06 
  315000   0.97482346   -3.8017248   0.40698125   -2.0543613 9.4291711e-05 
  316000    1.1530931   -3.9856271  0.096023196   -2.3041009 0.00027454969 
  317000    1.0446556   -3.9159869     0.584707   -1.8948784 -0.0002412873 
  318000    1.1770277   -4.0608386   0.43028074   -2.0121448 -4.0714652e-05 
  319000    1.8474178   -4.0777535   0.45380452   -1.0837495 0.00028302764 
  320000    1.3564729   -3.3478442   0.30858008   -1.1741138 0.00053212201 
  321000    1.0943347   -4.0337711   0.37188007   -2.1571809 0.00023559103 
  322000    1.2050782   -3.1983626    0.7068283  -0.83455183 -0.00025168113 
  323000   0.82158697   -3.9512681   0.86962862   -1.9519574 0.00022060922 
  324000     1.492699   -4.1173694   0.72491869   -1.3399895 -0.00012544651 
  325000   0.86556251   -4.3100709   0.90244534   -2.2174771 -0.0002403705 
  326000    1.2050415   -4.0287447    0.5507962   -1.8210165 -9.9528514e-05 
  327000    1.0556815   -3.8332671   0.99293811   -1.3887669 -3.8947607e-05 
  328000   0.73487006   -3.9102283   0.52247373   -2.3773082 -0.00019847809 
  329000    1.1942506   -4.3644021   0.40994331   -2.3123642 6.2596492e-05 
  330000    1.2113731   -3.3188678   0.42793449   -1.2252953 0.00014079947 
  331000   0.82869131   -3.2817893   0.36689258   -1.7754462 -0.00034125868 
  332000    1.0868235   -3.7987356   0.64624481   -1.6581085 -0.00019473617 
  333000   0.48298697   -4.2052651   0.81846619   -2.7226918 -3.5348634e-05 
  334000    1.4740185   -3.2941496   0.33805292  -0.92932121 0.0002310284 
  335000   0.87089094   -3.3885316   0.50843516   -1.6826214 -9.8129172e-05 
  336000   0.76995585   -3.5336421   0.43754232   -2.0374105 5.4472666e-05 
  337000    1.0378718   -3.1764774   0.52656245   -1.2228413 -1.9384603e-05 
  338000   0.69187463   -2.3248603   0.25817408   -1.1153586 0.00017124934 
  339000    1.2820236   -1.8319758    0.6320435   0.56285017 -0.00015916959 
  340000   0.60100209   -3.5135612   0.22469067   -2.4624927 -9.2165154e-05 
  341000   0.84652302   -3.0524489   0.44454328   -1.4439365 0.00029638485 
  342000    0.9465265   -4.3019082   0.46079121    -2.539643 -1.5585858e-05 
  343000   0.81354716   -2.8491971   0.21015415   -1.5204156 -0.0002157681 
  344000   0.90660014   -3.9034402   0.35806664   -2.2987984 0.00012778915 
  345000    1.0286157   -3.6940976   0.47520281   -1.8045483 0.00010798785 
  346000   0.75921099   -3.9528162   0.36457273   -2.5443284 -0.00023250305 
  347000   0.87235543   -3.6684785   0.34466125   -2.1243286 0.00014424838 
  348000   0.86443903   -2.7280879   0.21297114   -1.3265131 4.5717602e-06 
  349000   0.74625825   -3.6688091   0.48856013   -2.1541439 -0.00013524157 
  350000   0.78168345   -2.0511846   0.20841051   -0.7679593 6.3154997e-05 
  351000   0.90095664   -2.0629003   0.31390871  -0.51017617 -7.6464375e-05 
  352000   0.80216917   -2.8215253   0.53577688   -1.1827659 3.1093442e-06 
  353000    1.0237049   -1.9344145   0.60216689  0.075346577  2.18919e-05 
  354000    1.3799688   -1.9668683   0.25823909   0.18882783 0.00011656336 
  355000    1.3002095   -3.6721589   0.37057076   -1.5138001 0.00050639573 
  356000   0.50464406   -3.2260352   0.79945835   -1.7326912 -0.00029522069 
  357000    1.1108214    -3.332105   0.55236013   -1.2523654 -0.00015733233 
  358000   0.55641624   -3.3985276   0.53603571   -2.0974196 0.00027961241 
  359000   0.53658674    -4.036291   0.50297288   -2.7955114 -2.5506633e-05 
  360000     1.150738   -4.2316097    0.9511366   -1.6982084 -0.00035564441 
  361000   0.94016679   -4.2523929   0.54893426   -2.4107293 -0.00031258628 
  362000    1.3532472   -3.9350209   0.62687511   -1.4474309 -6.7365725e-05 
  363000    1.1603674    -4.099236   0.21200284   -2.2917279 0.00038973827 
  364000   0.84824279   -3.7347196   0.42423826   -2.1441475 0.00035843309 
  365000   0.88707637   -3.5430313   0.83680784   -1.4864934 -8.5811809e-05 
  366000   0.85477974   -4.0125583   0.47120576   -2.3660304 -0.00015867004 
  367000    1.0194044   -3.7647284   0.75793116   -1.6051162 0.00052614004 
  368000    1.7184009   -4.1901266   0.52775562   -1.2995698 -0.00012608466 
  369000   0.64887607   -4.3283451   0.38862443   -3.0475161 0.00010470336 
  370000    1.2780863   -3.8488679   0.44041142   -1.6510878 5.9188698e-05 
  371000   0.79237878   -3.9850354   0.24607157    -2.649443 8.0109701e-05 
  372000    0.8963708   -3.9777545   0.94835449   -1.7968902 -0.00036228815 
  373000   0.74260426   -4.3326011    0.4905408   -2.8209795 0.00016676684 
  374000    1.0474823   -3.8984483   0.57037012   -1.8877899 -3.5693939e-05 
  375000   0.76678137   -4.0399173   0.31165208   -2.6739408 -7.9403518e-06 
  376000    1.4997972   -2.3416596    0.3338426  0.054404126 -0.00016475011 
  377000    1.2234538   -1.8614515   0.15864446 -0.020558036 7.8405705e-05 
  378000   0.53889792   -2.5975562   0.57911641   -1.2774551 -0.00020116264 
  379000    1.4310283   -2.2014646   0.66709452   0.43329391 -8.3022853e-05 
  380000    1.5591257   -3.9797057   0.30382191    -1.532086 0.00021667851 
  381000   0.75034073   -4.3785579   0.23696819   -3.1098712 0.00042559396 
  382000    1.4525507   -4.1604431   0.43200632   -1.7311796 0.0003454347 
  383000   0.74107881   -4.2701669   0.26404669   -2.9871369 0.00013205182 
  384000    1.0968565   -3.4223521   0.52333782   -1.3908366 8.1053442e-05 
  385000   0.75578485   -3.7201991   0.64226918   -2.0387258 0.00023861489 
  386000    1.1543698   -3.8609805   0.48554457   -1.7881775 -0.00017170809 
  387000   0.90952476   -4.2128919   0.39041963   -2.5718757 0.0001300599 
  388000   0.61352672   -3.5910767   0.66767808   -2.0797994 0.00018952875 
  389000    1.1549572   -4.2764386    0.2476199   -2.4407525 0.00035466917 
  390000   0.98003216   -3.8153107   0.42165111   -2.0461154 -3.4786122e-05 
  391000    1.2288323   -2.8379538   0.40394865  -0.74436074 -8.6246797e-05 
  392000    1.0000105   -3.7359865   0.59092186   -1.7700503 0.00010276139 
  393000     0.904111   -4.5653308    0.8985568   -2.4236214 -0.0004910618 
  394000   0.63855498   -4.1204734   0.22738725   -3.0150731 -0.00015662938 
  395000    1.4597392   -4.1950142   0.44187458   -1.7459982 5.8458811e-05 
  396000    1.2507801   -4.0356478   0.84137777   -1.4744474 1.3533381e-05 
  397000   0.93580147   -2.6017956   0.37978346  -0.93528514 0.00041477617 
  398000   0.55772528   -3.3880225   0.36531916   -2.2558311 -0.0002234355 
  399000    1.1247505   -4.1795364   0.33810865   -2.2948959 -0.000206812 
  400000    1.5487911   -4.0871351   0.46805849   -1.4894889 7.5196359e-05 
  401000   0.96092759   -3.8276733   0.80145191    -1.704946 -0.00031559833 
  402000    1.2342618   -4.3923774   0.18881252   -2.5064549 7.0226773e-05 
  403000   0.90138759   -3.9427843   0.59898952   -2.1043869 -4.0772187e-05 
  404000   0.96674152   -4.0003837   0.29415417     -2.37696 -0.00016904952 
  405000    0.7273132   -3.2475591    0.6336448   -1.6138586 -0.00016631315 
  406000   0.78205285   -4.1345172   0.63294347   -2.4262511 -4.5311138e-05 
  407000    1.0401533   -4.0988291   0.79201294   -1.8766054 0.00015622891 
  408000   0.82001418   -4.2123036   0.60515822   -2.4796259 -9.342295e-06 
  409000    1.0710671     -3.78166   0.94520339   -1.3637394 -0.00054637039 
  410000   0.85068215   -3.8065689   0.56768253   -2.0691984 -0.00018258155 
  411000    1.0247595   -4.0837702   0.54236235   -2.1323635 0.00027943597 
  412000    1.2900718   -3.9662393   0.64546307   -1.5469275 -0.0001070453 
  413000    1.0762097   -3.3672269   0.30549529   -1.5819433 0.0003660932 
  414000   0.87955832   -3.1846585   0.79258389   -1.1826819 -0.00036896601 
  415000   0.94717434   -3.7052977   0.31322351   -2.0897095 0.0002332723 
  416000    1.2216129    -3.791744   0.26396793   -1.8480584 6.1509336e-05 
  417000    0.3193008   -3.7789344   0.20445055   -3.1354452 -8.7649517e-05 
  418000    1.4125907   -3.9305823   0.54265805   -1.4456121 9.4621767e-05 
  419000   0.74285495   -3.7028931   0.21932444   -2.4621431 -0.0002223959 
  420000    1.0631253   -3.8529993    0.3620125   -2.0291896 -0.00019575898 
  421000    1.1795355   -3.7144127   0.54189503   -1.5506564 0.00020316886 
  422000    1.1821879   -4.1216628   0.27068881   -2.2254656 0.00017379873 
  423000    1.2581703   -3.3341905   0.21727201   -1.3869343 0.00094426849 
  424000   0.78884635   -4.1354716   0.27033983   -2.7804681 -0.00010614933 
  425000   0.58752009   -3.5369009   0.48071507   -2.2483457 -0.0001779518 
  426000      0.88655   -3.8223089   0.24107827   -2.3622244 1.2510876e-05 
  427000    1.5870088   -4.1424999   0.37013482   -1.5902279 4.7789566e-05 
  428000     1.148821   -4.1182638   0.56420012   -1.9744349 -3.7310058e-06 
  429000   0.95929286   -4.1938427   0.45991079   -2.4149042 0.0001225506 
  430000      1.26048    -3.886736   0.20168137   -1.9518946 0.00079805056 
  431000    1.0497046   -4.3413397   0.68751651   -2.2104793 0.0002874035 
  432000    1.2675162    -3.987528   0.57125993   -1.6734333 0.00045244754 
  433000   0.94883997   -4.2300105   0.58192519   -2.3434303 -2.0791112e-05 
  434000   0.75869052   -3.8820317   0.23903458   -2.5997976 7.7895609e-05 
  435000   0.69177183   -3.2109076   0.48929363   -1.7704277 0.00011433027 
  436000   0.67557788   -3.7534577   0.58662935   -2.2379088 0.00013381612 
  437000    1.1440493   -3.5657888   0.56470518   -1.4280158 0.00013532618 
  438000    1.0003085   -4.1756983   0.71094187   -2.0893322 0.00017098436 
  439000   0.66753843    -4.001031   0.33968758   -2.7434781 -0.00020571161 
  440000   0.86650512   -2.9794228   0.61891128    -1.169067 -0.00047213604 
  441000    1.3068849     -4.09772   0.50010361   -1.8006497 0.00022596915 
  442000   0.80079525   -4.2418656   0.36383118    -2.776941 3.9450478e-05 
  443000   0.80776998   -3.9220791   0.70902975   -2.1023656 6.6522484e-05 
  444000   0.60934013   -3.9852524   0.45554868    -2.691861 0.00034416779 
  445000    1.3547072   -3.7168986   0.43823517    -1.415941 0.00019988472 
  446000   0.97631438   -4.2164442   0.27140444   -2.6026075 0.00038066353 
  447000    1.1862454   -3.4241678   0.32930051   -1.4637799 -1.9167718e-05 
  448000    1.0306766   -3.9267156   0.56037678   -1.9491585 -3.1854529e-05 
  449000    1.1741695   -4.1703832   0.45217019   -2.1037299 0.00032304523 
  450000   0.84053951   -3.5046874   0.73192034   -1.6170253 0.00019044213 
  451000   0.90525518   -3.9507191   0.33649076   -2.3695024 -0.00013528951 
  452000   0.99182218   -3.3457513    0.4470747   -1.5349211 6.4091178e-05 
  453000   0.56342529   -2.9883533   0.32241728   -1.8912262 -0.00018107854 
  454000   0.95531277   -3.7080119   0.47970487   -1.9147519 0.00087633629 
  455000   0.99565836   -3.7056033   0.63392964   -1.7026435 -5.7998019e-05 
  456000   0.82832849   -3.8742789   0.26727827   -2.4680489 -9.0605157e-06 
  457000    1.7030544   -3.4402926   0.59994493  -0.49864784 -0.00022937226 
  458000     0.768558   -3.9900378   0.51651307   -2.4167574 4.4386301e-05 
  459000    1.1808764   -3.6791538   0.50244537   -1.5530035 2.4328046e-05 
  460000   0.80061042   -4.0014292   0.27646016   -2.6241297 -0.00036540313 
  461000    1.2424446   -4.2602888   0.39034864   -2.1615789 0.00012304275 
  462000   0.74280947    -3.554731   0.41777151   -2.1155965 0.00049025026 
  463000   0.92585656   -4.2109568   0.29010256   -2.6478014 5.6249112e-05 
  464000    1.0693608   -3.8496137   0.35855479   -2.0206879 0.00017956897 
  465000    1.3935482   -3.8080502   0.31659293   -1.5753285 0.00031224573 
  466000    1.1692629   -3.7360873   0.54314351   -1.5852073 0.00016691781 
  467000   0.71008577   -4.0185775   0.42501629   -2.6171933 -5.8215301e-05 
  468000    1.2265864   -3.7932299   0.36540375   -1.7412699 3.0705955e-05 
  469000   0.78216952   -4.0510723    0.5060195   -2.4695698 -0.00010732445 
  470000   0.81054683   -4.1028064   0.46094628   -2.5273583 0.00024308328 
  471000    1.0945353   -3.4309355   0.28350659   -1.6424428 -3.9015388e-05 
  472000   0.72989487   -3.8861977   0.29010637   -2.5924859 0.00024672174 
  473000    1.2806223   -4.2183315   0.35364085   -2.1038349 3.2444211e-05 
  474000    1.2587398   -3.9529189   0.63542871   -1.5867229 0.00010431922 
  475000    0.9136067    -4.242281    0.8097467    -2.176325 -0.00024710038 
  476000   0.98813434   -4.0789439   0.44503048   -2.2752287 5.9207893e-05 
  477000   0.82874792   -3.5745054   0.34959111   -2.0853859 0.00046921652 
  478000   0.63185295   -3.9852175   0.35868124   -2.7577384 -0.00031322531 
  479000   0.90765128   -3.7480068   0.46432194   -2.0356644 -0.00023496239 
  480000    1.1581565   -4.1643135   0.38527107   -2.1865773 0.00056791185 
  481000    1.2180997   -3.8952551   0.57945603    -1.640912 0.00016913656 
  482000    1.2306142   -4.2260958   0.89333405   -1.6406672 -0.00024023396 
  483000    1.4843402   -3.8199912   0.10732936   -1.6716941 0.0005443142 
  484000   0.81454248   -3.9671822   0.27110968   -2.5760766 0.00010811826 
  485000    1.0100391    -4.191454   0.44478764   -2.3578626 0.00029502395 
  486000   0.74651142   -3.6302527   0.35993537   -2.2438641 -0.00029614633 
  487000     1.108489   -3.9487284   0.37296861   -2.0515875 -4.9496318e-05 
  488000   0.91082058   -3.8109502   0.60335226   -1.9552196 -0.00020816167 
  489000   0.64241119   -4.0782468   0.25978078   -2.9351506 0.0004707345 
  490000    1.0832985   -4.2018133   0.59887103   -2.1134068 -0.00040858524 
  491000   0.86891598   -4.0245421   0.59958033   -2.2302023 -0.00013287239 
  492000    1.2316969   -4.0816603   0.29374152   -2.0943356 0.0001526207 
  493000    0.8711793   -3.2704598   0.26786633    -1.804722 3.0886332e-05 
  494000   0.77901974   -4.1213441   0.53107691    -2.519115 -0.00010840243 
  495000    1.4622463   -4.1634512   0.24112756    -1.911735 0.00027010126 
  496000    1.2321827   -3.6207761   0.61815082    -1.308374 0.0002819585 
  497000   0.77528195   -2.8124077   0.47877343   -1.2676216 -7.4694984e-05 
  498000    1.0456887   -3.8528695    0.1476642   -2.2673834 0.00015137335 
  499000   0.88557896   -4.0170379   0.21916139   -2.5802055 -0.00022331944 
  500000   0.98662853   -3.4395054   0.32349913   -1.7593921 -4.4917783e-05 
  501000    0.8630458   -3.7394904   0.38692563   -2.1658768 -0.0003004797 
  502000   0.64904644   -3.5714869   0.46658477   -2.2124633 -0.00020812778 
  503000   0.76291541    -4.122916   0.20127397   -2.8726334 -0.00012288657 
  504000    1.1371253   -3.7987335   0.43088338   -1.8043028 0.00015090604 
  505000    1.2667877   -3.7862418  0.088714165   -1.9556945 3.253329e-05 
  506000   0.75620197   -4.3685842   0.89346021   -2.4353463 -0.0005710821 
  507000   0.83185459   -4.1181108   0.45174904   -2.5225617 -0.00017679329 
  508000    1.2999804   -4.0586695   0.38120643     -1.88999 0.00023560671 
  509000   0.67321075   -4.1497727   0.33941321   -2.8846947 0.00022990731 
  510000    1.2281577   -3.7936722   0.42258302   -1.6823724 0.00023075623 
  511000   0.64964975    -3.946373   0.40522217   -2.6478824 -8.4916413e-05 
  512000     1.148492   -4.2247733   0.34877599   -2.2968209 0.00019538388 
  513000   0.85453155   -3.7207352   0.43351064   -2.1122437 -9.8980455e-05 
  514000    1.0913072   -4.0039215   0.59260064   -1.9107734 0.0001552553 
  515000    1.3038806   -4.0614143     0.410344   -1.8582345 -0.00010266603 
  516000    1.0748692   -3.4312615   0.24087103   -1.7124453 0.00017317756 
  517000   0.94748854   -4.2581381   0.46049803   -2.4948434 -0.00016672769 
  518000    1.1047384   -4.0156161   0.49832546   -1.9982754 -1.5463278e-05 
  519000   0.81194588     -4.09563   0.14680284   -2.8324016 4.2392581e-05 
  520000   0.85699585   -2.9020928   0.45984555   -1.2638779 0.00037720359 
  521000   0.98505272   -4.1645783   0.51008443   -2.3000464 -2.2101328e-05 
  522000   0.41068364   -3.9533232   0.46262328   -2.9260099 0.00023987396 
  523000    1.4547935   -4.2520509   0.43304324   -1.8186666 1.5106453e-05 
  524000    1.2349912   -3.5552346   0.50140173     -1.35572 9.2428511e-05 
  525000    1.1000485   -3.7579253    0.8733835   -1.3719751 -0.00020625656 
  526000    1.0894975   -4.2343943   0.36887312   -2.3674621 0.00024087074 
  527000   0.94194042   -3.8681525    0.4298891   -2.1430953 -0.00022760603 
  528000    1.3862506   -3.8007191   0.36533734   -1.5292872 -4.9923543e-05 
  529000    1.0557619   -3.7321902    0.3607607   -1.9197569 0.00013775086 
  530000   0.80466486   -4.2339397   0.53991071   -2.5876148 7.0947897e-05 
  531000   0.88716463   -3.6381565   0.78045489   -1.6378502 -0.00032675088 
  532000   0.83210567   -3.6724175   0.58585158   -1.9424207 3.2808864e-05 
  533000    1.1730015   -4.0399156   0.61508002   -1.8119585 -0.00019897407 
  534000     1.289452   -3.7356718   0.51463509   -1.4480402 -4.9259213e-05 
  535000   0.90047107   -4.1887525    1.1545113   -1.7960935 -0.00033085874 
  536000    1.0745962   -3.6717394   0.27904848   -1.9151212 0.00037188573 
  537000    1.5708285   -3.7211212   0.33083685   -1.2303952 0.00040590192 
  538000   0.94059235   -3.3685354   0.36400846   -1.7112124 0.00030402045 
  539000   0.65126479   -3.7496716   0.27934124   -2.5748413 0.00089411322 
  540000   0.46222542    -4.399118   0.52198345   -3.2415746 -0.00026847637 
  541000   0.83126247   -3.7031591   0.42209928   -2.1380739 9.0866062e-06 
  542000   0.76791803   -3.9226098   0.33647868   -2.5302438 0.00025736662 
  543000    1.3801764   -3.7775494   0.60699377   -1.2728132 0.00010230498 
  544000    1.1781979   -3.5510761   0.36002225   -1.5710317 0.0001037742 
  545000   0.78852014   -2.8975035   0.47473799   -1.3385504 -0.00012454676 
  546000   0.71082608   -3.5829382   0.32399638    -2.281556 0.0002629056 
  547000    1.0857544   -3.9043372   0.29415338   -2.1172715 0.00019449716 
  548000    1.1095644   -3.7590574   0.37412826   -1.8592782 -9.7966881e-05 
  549000   0.79502191   -3.7920964   0.22784294   -2.4710984 9.7963416e-05 
  550000   0.91473487   -3.1596985    0.3117308   -1.5902072 0.00059957373 
  551000   0.87120565   -4.1239633    0.9686674   -1.9573881 -0.00036412994 
  552000    1.7001009   -3.8680478   0.47745581   -1.0529532 0.00045356025 
  553000    1.0466302   -4.1811674   0.54965503   -2.1923958 -6.3639571e-05 
  554000    0.9539471    -4.057677   0.41892413   -2.3270756 0.00018873224 
  555000    1.3475469   -4.2145743   0.44315821   -1.9185392 7.1761053e-05 
  556000     1.385785    -3.469788   0.58350609  -0.98082762 -0.00024162478 
  557000    1.1206585   -4.3484411   0.38265404   -2.4248817 -1.6898772e-05 
  558000    1.2342731   -3.8515383   0.32722077    -1.827192 8.3347048e-06 
  559000   0.55278677   -4.1622009   0.76033735   -2.6417818 -0.00043673037 
  560000    1.0057799   -3.4188691   0.79920338   -1.2367182 -3.5607847e-05 
  561000    1.0121838    -3.377546   0.42396665   -1.5618266 -1.4444282e-05 
  562000   0.91485199   -4.1895056   0.19429082   -2.7372933 -5.05606e-05 
  563000   0.84083928   -3.5785123   0.59118112   -1.8311771 -9.7897946e-05 
  564000   0.92136949   -3.7840381   0.29443688   -2.2227182 0.0005337279 
  565000     1.334111   -4.3636983   0.39660767    -2.132688 0.00016414194 
  566000   0.51552037   -4.1464355   0.44979914   -2.9877959 -0.00027493492 
  567000    1.0713318   -3.7449033   0.62548837   -1.6463338 0.00024599251 
  568000    1.0599719   -3.8530185   0.38948353   -2.0060736 0.00018450264 
  569000   0.81738567   -4.1352139   0.54595547   -2.4653531 -0.00016558673 
  570000   0.66716876   -3.6140557   0.58054263    -2.116156 -0.00031682725 
  571000   0.80605257   -4.1195782   0.75432939   -2.2569265 -0.00022221899 
  572000   0.92123252   -4.1954136   0.46372443   -2.4649944 0.00018181207 
  573000    1.0050653   -3.5410902   0.31579067   -1.8433348 -8.4039395e-05 
  574000   0.90802324   -4.4709963   0.59504792   -2.6274165 -0.0001092252 
  575000   0.63337615   -4.0257392   0.48481243   -2.6700346 -1.1744357e-05 
  576000     1.185274   -3.6247262   0.52949383   -1.4654806 -0.00052168976 
  577000    1.1043087   -4.1296532   0.81070775    -1.800521 -0.00042113641 
  578000   0.83721693   -4.2132278    0.3223556   -2.7396989 3.6824088e-06 
  579000   0.68561986   -3.4080549   0.45043613   -2.0148915 -6.9861016e-05 
  580000    1.0096684   -4.3028378   0.47579127   -2.4387525 7.189413e-05 
  581000    1.2022074   -3.9091813   0.34109039   -1.9150556 0.00033004246 
  582000    1.1787227   -3.2101939   0.58222382   -1.0072264 0.00030162851 
  583000    1.1251839   -4.5135454     0.729968   -2.2364495 -0.00021587539 
  584000   0.97468321   -3.3832977   0.87692845   -1.1661799 0.00017645494 
  585000   0.93190034    -3.459522   0.35314114   -1.8250178 -0.0001189298 
  586000    1.1172724   -3.5457313    0.5475564   -1.4619254 8.6312689e-05 
  587000   0.67730638   -3.6319117   0.55204131   -2.1485741 6.6805781e-05 
  588000   0.41494454   -3.8058968   0.35897232   -2.8763757 -0.00033975134 
  589000    1.0894085   -3.8566757   0.42112812   -1.9376109 -0.00033517433 
  590000   0.87779989   -3.8017065   0.33333672   -2.2613949 0.00018765741 
  591000    1.2118445   -2.5691389    0.5273415  -0.37551117 -0.00017926286 
  592000   0.75060524   -2.0814745   0.23862469  -0.81076765 8.8555136e-05 
  593000    1.0378369   -1.7466895   0.44550214    0.1258383 1.127549e-05 
  594000   0.81002237   -3.7904163   0.28595772   -2.3906779 -8.5990448e-05 
  595000   0.64894425   -3.5395931   0.61579568    -2.031499 -0.00031644573 
  596000   0.80457472   -3.8472689   0.46999198   -2.2709867 0.00066148381 
  597000    1.3160154    -3.740596   0.70315578    -1.227919 -0.00031166897 
  598000   0.68546028   -3.4980224   0.52971874   -2.0257958 -5.7895004e-05 
  599000    0.7051716   -4.1805511   0.73836564   -2.4725745 -0.0002869502 
  600000   0.74420238   -4.2531859   0.20171123   -3.0281964 0.00010429217 
  601000   0.99832661   -3.6759143   0.29652689   -2.0066883 0.00052156792 
  602000    1.2057701   -3.9615143     0.395303   -1.9082774 0.0001052956 
  603000   0.84721031   -4.2746467   0.34330654   -2.7664259 -0.00025657102 
  604000     0.815363   -2.6931108  0.093745538   -1.4782411 -5.7544729e-05 
  605000    1.1719543   -4.0387661   0.34822097   -2.0791079 7.8653449e-05 
  606000   0.75175785   -3.6425491   0.42167743   -2.1872046 -5.8935307e-05 
  607000     1.392022   -3.5646262   0.74978604  -0.90080982 -1.0039712e-05 
  608000    0.9016085   -3.7814551   0.49942563   -2.0423178 0.00031937615 
  609000   0.82052527   -3.5417599   0.41950964    -1.994028 -0.0002156117 
  610000   0.74033458   -3.5258318   0.43032675   -2.0775451 6.2885341e-05 
  611000   0.92475893   -3.9168167   0.41040145   -2.2348717 -0.00010368235 
  612000   0.67741892   -4.0381572    0.6609155   -2.4457907 -0.00018800333 
  613000    1.2336709   -4.4123209   0.44719642    -2.268827 -7.5187314e-05 
  614000   0.96462608   -3.9983363    0.4500886   -2.2218869 5.9990846e-05 
  615000    1.1523769   -4.3203593   0.55422886   -2.1816122 0.00011642187 
  616000    1.1315639   -3.8798654   0.31441484   -2.0095503 0.00019512991 
  617000    1.1315466   -4.0707387    0.6157324   -1.8991298 -0.00018361379 
  618000    1.4449144   -3.9327319    1.2564308  -0.68954368 2.3427772e-05 
  619000    1.0222419   -4.2140629   0.59172912   -2.2167512 -0.00030096524 
  620000   0.79991672   -4.0969108   0.59772393   -2.3993014 -0.00024917535 
  621000    1.1048644   -3.1761223   0.22000185   -1.4369319 0.00015205218 
  622000    1.2032788   -4.2413097   0.51632048   -2.0704809 -0.00019094589 
  623000   0.92736389   -3.9664496   0.21883927    -2.472485 -4.2969646e-05 
  624000    1.4891089   -3.6985553   0.13787697   -1.5131536 0.00037305446 
  625000    1.2315007   -4.1676086   0.70952826    -1.764767 1.588705e-05 
  626000   0.90050686   -4.0038032   0.24613705   -2.5194692 -2.3912056e-05 
  627000    1.1880977   -4.1263293   0.16469874   -2.3279961 1.5397828e-05 
  628000   0.62995639   -3.9369208    1.0781614   -1.9925693 -0.00029047916 
  629000    1.0985537   -4.2686577   0.97411671   -1.7840297 -0.00056456277 
  630000    1.0765342    -3.447787   0.39648951    -1.571063 0.00017179771 
  631000    1.0141727   -4.2006265   0.26318462   -2.5429545 0.00023054017 
  632000   0.76387642   -3.7506554   0.47075163   -2.2295737 -0.0002974154 
  633000   0.95131921   -3.9337663   0.81776208   -1.8079403 -0.00031655343 
  634000   0.69556618   -2.0522548   0.29969012   -0.7961612 0.00012761674 
  635000    1.1841897   -3.8724904   0.58341807   -1.6608115 -0.00020404629 
  636000    1.0302104   -4.1970792   0.87318414   -1.9073558 0.00023305427 
  637000     1.068008   -3.0515487   0.88178128  -0.70125633 -0.00018350024 
  638000    1.1478286   -2.8803313   0.37203897  -0.93002801 4.6237977e-06 
  639000   0.78433866   -3.4627755   0.56846092   -1.8158489 0.00013644999 
  640000   0.77480968   -4.0282558   0.48105976   -2.4818328 0.00029474978 
  641000    1.1672236   -2.2909519   0.54899906  -0.13702037 3.5922158e-05 
  642000     1.045848    -2.585351    0.4901004  -0.65720967 9.0358424e-05 
  643000   0.77140602   -4.2565088   0.69969011   -2.4961354 9.8192884e-05 
  644000   0.81624161   -3.1857971   0.21349012   -1.8499747 0.00035795063 
  645000   0.88924029   -3.8038135    0.2077138   -2.3733943 9.2297613e-05 
  646000   0.91189563   -3.5445322   0.49551034   -1.7951653 -8.9160138e-05 
  647000    1.1653483   -3.8530261   0.33983534   -1.9108368 0.00037969448 
  648000   0.92215162   -3.6663548   0.34725846   -2.0511379 0.0004737948 
  649000    0.8697111   -4.0685997   0.30287797   -2.5698689 0.00018278927 
  650000   0.45869334    -3.855776   0.25783193   -2.9672407 0.00040903862 
  651000   0.94587403   -3.1925997    0.5554401   -1.3365828 3.7160802e-05 
  652000   0.74818616   -3.7305448   0.37215321   -2.3296356 0.00032747426 
  653000   0.90417057   -3.5989065   0.71352048   -1.6421514 -0.00027498941 
  654000    1.1688671   -4.0677999   0.37493017   -2.0856774 -1.077877e-05 
  655000   0.86581433   -3.5079115   0.38718068   -1.9302361 -0.00014545341 
  656000    0.5903377   -4.1259481     0.822879   -2.4913548 0.0001816109 
  657000    0.9863318   -3.4699587   0.39950612   -1.7142463 -0.00015601497 
  658000    1.0282449   -4.2484656    1.0122826   -1.8223462 -0.00021358867 
  659000     1.155585   -3.1740735   0.30339125   -1.2817529 0.00016924946 
  660000   0.73273199   -2.0836163    0.7090408  -0.36706898 5.302105e-07 
  661000    0.9731951   -2.0244576   0.89728764   0.21097329 1.9783337e-05 
  662000   0.91339829   -2.1920398   0.44521277  -0.49090438 -0.00010376875 
  663000    1.2071669   -3.6716549   0.44521784   -1.5665825 1.2494327e-05 
  664000   0.76212855   -3.4668126   0.35045135   -2.0684345 -0.00014915856 
  665000   0.87937719    -3.299325   0.52585987   -1.5643215 -0.00023284181 
  666000    1.6911651   -3.7428707   0.40189859   -1.0156201 0.00040295427 
  667000    1.0074693   -3.8606194   0.62752803   -1.8478211 0.0001394446 
  668000    1.0584464   -3.1806008   0.70369539   -1.0215415 0.00032902465 
  669000    0.9481572   -4.1714839   0.54653321   -2.3212345 0.00011344354 
  670000   0.99998395   -4.1411566   0.59824902   -2.1679296 -7.8889387e-05 
  671000   0.98946727   -2.9445413   0.44800775   -1.1360161 -0.00035391943 
  672000   0.68286594   -3.7384614   0.65867158   -2.1408491 -0.00015468941 
  673000    1.0274236   -3.7682439   0.50018864   -1.8553478 -1.7270924e-05 
  674000    1.0971319   -3.8230363   0.38741053   -1.9270694 -0.0003251127 
  675000    0.8376811   -4.1514797   0.63108876   -2.3685794 0.00011255736 
  676000   0.98452016   -3.8492643   0.64093091   -1.8546182 0.00042928582 
  677000   0.86712481   -4.0736018   0.29346469   -2.5878405 -0.00027092643 
  678000   0.98038929   -3.2471311   0.54334484    -1.355751 0.00011403591 
  679000   0.92875251   -2.7772083   0.36180566   -1.1383679 -1.5883691e-05 
  680000    1.1718229   -3.9119237   0.41610149   -1.8845657 0.00010007469 
  681000   0.86380269   -4.1882789   0.73923891   -2.2613113 0.0003988659 
  682000   0.90843939   -3.9692133   0.64667569   -2.0734335 0.00026318097 
  683000   0.81856239   -3.9793466   0.55971156   -2.2941117 6.8280303e-06 
  684000   0.76725087   -2.8835464   0.63877644      -1.1898 -0.00027034653 
  685000   0.88512651   -3.7560721   0.23557665   -2.3034465 0.00018040911 
  686000   0.82012206    -3.880388   0.51120317   -2.2415169 0.0004103413 
  687000    1.0395086   -3.6353102   0.38613539   -1.8198505 2.918371e-05 
  688000   0.65067595   -3.6029324   0.49562797    -2.212625 0.00012825648 
  689000    1.1603827   -3.3145917   0.20547716   -1.5135883 0.00044975922 
  690000   0.91013321   -3.9669955   0.50886743   -2.2066949 -0.00036049793 
  691000    0.9941588   -3.4857158   0.39427143    -1.724476 -0.00010370145 
  692000   0.34670074   -4.0448399   0.43240836    -3.135718 -0.0002049073 
  693000   0.87979952   -3.9583453   0.83328887   -1.9153321 -0.00022217134 
  694000    1.3760141   -4.2573079   0.26281533   -2.1024732 1.4254625e-05 
  695000   0.63254636   -3.1850929   0.35098559   -1.9643561 -0.00031867256 
  696000   0.70920357   -3.1049024   0.17098239   -1.9587651 0.00055927932 
  697000    1.0417863    -4.300648    0.5613772   -2.3068147 -9.9372051e-05 
  698000    1.3709895   -4.1779005   0.50136152   -1.7914284 -0.00022486874 
  699000   0.91462377   -4.3567443   0.25407971   -2.8450569 4.523732e-05 
  700000   0.91688528   -3.9570213   0.69187222   -2.0044318 -0.00023919841 
  701000   0.70578875   -4.1048072   0.81560692   -2.3187408 -1.6693626e-05 
  702000    1.0616053   -3.5346466   0.42987366   -1.6450657 -0.00035140598 
  703000   0.83999059   -3.6494768   0.24628266   -2.2482071 0.00037511384 
  704000   0.92219763   -3.4057944   0.57202126   -1.5657514 0.00022350076 
  705000   0.80336418   -4.1214519   0.14116948   -2.8756567 -9.4880476e-05 
  706000    1.2790278   -3.6747523   0.63916738   -1.2769218 -0.00027503227 
  707000   0.85851699   -4.2527972   0.50342822   -2.5689081 -0.00011781498 
  708000    0.8641222   -3.2855539   0.53456496   -1.5628209 0.00013488414 
  709000   0.72867057   -3.9583023   0.56588062   -2.3904997 -0.00014393555 
  710000   0.89983767   -3.7358878   0.60728206   -1.8913289 -0.00011308601 
  711000   0.92172048   -3.4592077   0.52998139   -1.6618607 0.00016697605 
  712000    1.2744468   -3.8250259   0.39226355    -1.680398 0.0002833567 
  713000    0.9271125   -3.8088058   0.43052005    -2.103506 -0.00023583144 
  714000    1.1833177   -3.4483307   0.99636256  -0.82490627 -0.00028718947 
  715000   0.92371868   -4.0928847    0.6024525    -2.220319 -0.00013753066 
  716000   0.91792532   -4.1565962   0.48190061   -2.4125483 -1.5920511e-05 
  717000   0.68426274   -3.7187127    1.0694955    -1.708356 -0.000198749 
  718000    1.1133066   -4.2571529   0.33237511   -2.3939812 0.00012920341 
  719000    0.9612173   -3.9223837   0.67076195    -1.929948 5.8495349e-05 
  720000   0.89902953   -3.9471217   0.15697934   -2.5539768 0.00058776134 
  721000    1.3968956   -4.2225238   0.27452022   -2.0272721 -0.0001966961 
  722000     1.159406   -3.7312675   0.56805412   -1.5690302 0.00028694169 
  723000   0.84081274   -4.0409401   0.24135157    -2.643471 -0.00030761763 
  724000    1.0029457   -4.3079678   0.57101447    -2.357903 -0.000415968 
  725000   0.85769144   -3.8326731   0.47764028   -2.1757071 0.00055447638 
  726000   0.73671994    -4.103455   0.70197072   -2.3884944 -0.00047544019 
  727000    1.3975727   -2.8937049   0.48992546  -0.48211703 -7.0442349e-05 
  728000    1.3078639   -4.0666471   0.30438352   -1.9639507 9.0341965e-05 
  729000   0.86802325   -3.6903988   0.24908465   -2.2477822 2.3550576e-05 
  730000   0.66106428   -3.9918287   0.59098225   -2.4918831 0.00011290095 
  731000   0.75628071   -2.9359332   0.60502557   -1.2910216 -0.00017008209 
  732000   0.86453341   -4.0569194   0.25192292   -2.6162631 -1.1449614e-05 
  733000   0.87930732   -3.8459844   0.98569828   -1.6512385 -0.00015552108 
  734000   0.73076365   -4.1919643   0.28529729   -2.9018669 -0.00017653415 
  735000    1.0459323   -3.7039545   0.41685572   -1.8489419 -0.00023824791 
  736000   0.93297862   -4.2765005   0.44195609   -2.5516988 -0.00013018914 
  737000    1.2245092   -3.8938004   0.55686057   -1.6532398 -0.00010244322 
  738000   0.80745367   -3.7477386   0.27817267   -2.3593171 1.8727644e-05 
  739000   0.96158888   -3.8332656   0.61511232   -1.8959685 -0.00016975056 
  740000    1.0244487   -4.1172135   0.53704065   -2.1715558 -1.3794552e-05 
  741000    1.1126066   -4.2605633   0.37325947   -2.3574698 7.8783701e-05 
  742000   0.84885612   -4.2753339   0.88976852   -2.2183882 -0.00039959446 
  743000   0.90113569   -4.0651814   0.52048756   -2.3056323 -0.00013188386 
  744000    1.3701458   -3.9216747   0.80129976   -1.2364244 -0.00042318225 
  745000    1.4993702   -4.4671311   0.71317897   -1.6923181 -0.00020350794 
  746000    1.2366058   -4.2329584   0.31198953   -2.2206359 0.00012748065 
  747000   0.74213305   -4.1143712   0.41484333   -2.6790949 5.7670073e-05 
  748000     1.179714   -3.6749751   0.56938388   -1.4834845 6.6992072e-05 
  749000   0.87245725   -3.8963616   0.33346321   -2.3632697 0.00031897695 
  750000    1.1102245   -3.6991434   0.79734163   -1.3752431 -0.00018575958 
  751000   0.95626297   -3.9307684   0.61960627   -1.9963006 0.00025554019 
  752000   0.79910713   -3.8162194   0.41200466   -2.3054424 0.00023447029 
  753000   0.87330794   -3.2269589   0.25924635   -1.7669142 6.0302967e-05 
  754000   0.96972733   -3.8809254   0.51550352   -2.0320468 -0.00028963303 
  755000    0.9275232   -3.5957232   0.66581741   -1.6545614 0.00035027994 
  756000   0.81313797   -3.9268202   0.31049628   -2.4982592 -3.694226e-05 
  757000   0.87293594   -2.8839859   0.33849338   -1.3452056 -6.8462941e-05 
  758000   0.93482023   -3.5991057   0.43778231   -1.8759456 -0.00027074998 
  759000    1.4911442   -1.7437654    0.3306298   0.63718763 0.00015056487 
  760000   0.70364592   -1.5107789   0.52445998 -0.018805809 -0.00036282488 
  761000   0.74537565   -3.6830704   0.48892186    -2.169257 -0.00036612375 
  762000   0.66018041   -4.1529399   0.44347337   -2.8017184 -9.0131083e-05 
  763000    1.1124407   -4.0875632   0.38673798   -2.1712192 0.0003575807 
  764000    1.4132654   -4.1787507    1.1594613   -1.0760496 -5.906086e-05 
  765000   0.80176778   -3.9217165   0.68134722   -2.1379386 -8.7583983e-05 
  766000    1.2447135   -3.8807474   0.59496683   -1.5742995 -0.0002533886 
  767000   0.83376171   -3.7502471   0.17519031   -2.4286345 0.00021096402 
  768000    1.2545822   -4.2153211   0.44285762    -2.047413 0.00027453796 
  769000    1.0225403   -4.1239562   0.30271462   -2.4152486 0.00025848984 
  770000   0.85164854   -4.2626188   0.51918445   -2.5724177 0.00017244103 
  771000    1.3945492   -3.8473046   0.31532598   -1.6144735 5.7760061e-05 
  772000    1.0141833   -4.2187011   0.30134706    -2.522852 0.00033221671 
  773000    1.1533011   -3.4633972   0.75232534   -1.1252828 -0.00022612035 
  774000    0.8408283   -3.7809616   0.24766651   -2.3771562 1.1965915e-05 
  775000    1.2911931   -3.6552553   0.50834519   -1.3715196 0.00013378879 
  776000   0.64359739   -4.1886632   0.61005939   -2.6936574 -0.00035477148 
  777000    1.3627304   -4.2382788   0.30873436   -2.0557901 -0.00018664923 
  778000    1.2489157   -4.1003443   0.11941697   -2.2636683 0.00048276224 
  779000     1.220381   -3.8799912   0.40560743   -1.7963599 4.8107042e-05 
  780000    1.4794116   -4.1276081   0.33792182   -1.7554954 0.00057827097 
  781000   0.72582624   -4.3612322   0.83222444   -2.5309967 -0.00022135907 
  782000   0.89395694   -2.5212407    0.4155949  -0.87645502 0.00015900054 
  783000   0.76429563   -3.8203039    1.0775106   -1.6918868 0.00033563694 
  784000   0.73047182   -3.5583721     1.057435   -1.4965383 0.00033292941 
  785000   0.71136863   -3.7774111   0.43906017   -2.3602191 4.0446765e-05 
  786000   0.66957927   -3.5716166   0.48476128   -2.1661838 0.0003718336 
  787000    1.2768629   -3.5880317   0.19677686   -1.6355683 0.00039786713 
  788000   0.92421137   -4.0281148   0.53376189   -2.2235623 -0.00012006082 
  789000    1.0773396   -3.3064194   0.60329965   -1.2217777 3.4639131e-05 
  790000   0.72885559   -3.9749954   0.31289333   -2.6599256 0.00040857123 
  791000     1.151687   -4.1689969   0.50814397   -2.0772832 -0.00010594881 
  792000    1.3324138   -4.3573349   0.38362768   -2.1416382 -0.00010844583 
  793000    1.3151363   -4.2849717   0.32344817   -2.1532111 -0.00013818085 
  794000    1.2413893   -3.9750914   0.42630675   -1.8418744 0.00010747771 
  795000     1.172658   -3.9027622   0.47127246    -1.819085 0.00015739141 
  796000   0.94515675   -3.9602052   0.56601113   -2.0946035 0.00014171226 
  797000   0.83527433   -3.5911111   0.65223558   -1.7903733 -4.3867657e-05 
  798000    1.2948503   -3.9721109   0.39284744   -1.7988443 0.00038929031 
  799000   0.76607982   -3.8800877   0.51784435   -2.3088836 -0.0002180129 
  800000    1.1448379   -3.5509637   0.73290285   -1.2439087 0.0001590101 
  801000    1.3164535   -4.2078149  0.099377224   -2.2983141 0.00024430978 
  802000    1.8194409   -3.6501982   0.51396936  -0.63449757 0.00028586238 
  803000    1.0972402   -3.9253484   0.57322655   -1.8434166 -0.00022061975 
  804000   0.80149836   -3.7309213   0.20825919   -2.4206018 0.00026022784 
  805000   0.96181147   -3.9013605   0.68915316   -1.8897166 1.629293e-05 
  806000    1.1805034   -4.2972831   0.78518129   -1.8889096 2.7590836e-05 
  807000   0.72119438   -3.7779954    0.3831284   -2.4032247 -0.00023701826 
  808000    1.2838487   -3.9726801   0.90153399   -1.3058542 -0.00013031598 
  809000    1.0030056   -4.0446955   0.19861064   -2.4669522 1.8070498e-05 
  810000    1.0630409   -4.0472306   0.79409787   -1.7914514 -2.3975285e-05 
  811000   0.89573944   -3.6664237   0.52843291   -1.9063491 -0.00012749843 
  812000    1.1751045   -3.8082741   0.23533006   -1.9571753 4.8523958e-06 
  813000   0.76256793   -3.7913182    0.9396429   -1.8031444 -0.00028715919 
  814000   0.93614452   -3.9577573  0.078966744   -2.5915918 -0.00016064322 
  815000   0.94105191   -3.8124983   0.39757414   -2.1209778 0.00017594087 
  816000    1.0276481   -4.0962431   0.82692515   -1.8563018 -0.00033952252 
  817000    1.0879299   -4.1258257   0.18569182   -2.4442302 -6.8316685e-05 
  818000    1.0168941   -3.2738089   0.15942875   -1.7161507 3.4066967e-05 
  819000   0.88746582    -4.185904   0.64657025   -2.3190682 -5.9335783e-05 
  820000    1.2051989   -3.8892831    0.7345722   -1.4975624 3.3205951e-05 
  821000    1.1832368   -4.1493847   0.27088228   -2.2515518 0.00014144257 
  822000    1.2940998   -3.7155327   0.43541869   -1.5007268 -5.6495199e-05 
  823000   0.97571764   -4.2288909   0.42275803   -2.4645211 -0.00022606639 
  824000   0.94576482   -4.2070281   0.21329942    -2.693302 -0.00016316992 
  825000   0.81064715   -3.9957367   0.63135426   -2.2497426 8.2739739e-05 
  826000     1.312187   -3.7849912   0.26222659   -1.7185074 0.00054415361 
  827000   0.74971705     -3.60474    0.6638231   -1.9100559 8.3618847e-05 
  828000    1.3337589   -3.7406173   0.55281559   -1.3538832 8.2676742e-05 
  829000   0.92136003   -4.1264221   0.39829539   -2.4612567 -0.00011884708 
  830000    0.9812651   -4.0929407   0.43756653   -2.3061347 0.0002399477 
  831000    1.1922115   -3.6813319   0.53405325   -1.5079879 -0.00012191477 
  832000    1.1236506   -3.9537044   0.35835564   -2.0503292 -3.474885e-05 
  833000   0.95184772   -3.8065974   0.48188946   -2.0159173 -4.6446824e-05 
  834000   0.64135746   -4.3735128   0.53559489   -2.9560514 -0.00032492965 
  835000    1.3645856    -4.394122   0.74175482   -1.7760619 -8.0937986e-05 
  836000    1.4779061   -4.1784618    0.2314487   -1.9148922 4.8827142e-05 
  837000   0.70701164   -4.2877834   0.36188032   -2.9537621 0.00013645984 
  838000   0.75852586   -4.2184255   0.70527469   -2.4701778 -0.00022611352 
  839000    1.0165103   -4.1805153   0.29919952   -2.4836141 0.00022489318 
  840000   0.95979791   -4.0705517   0.54551648   -2.2053131 -0.00013827726 
  841000     1.598704    -4.010432   0.62650077   -1.1857133 -8.1065877e-05 
  842000   0.77900722   -4.3784297   0.37106818   -2.9362266 1.2657697e-05 
  843000   0.97151622   -3.9014384   0.50346491   -2.0621387 -1.7931494e-05 
  844000    1.3566911    -4.240449   0.71332025   -1.6616785 -5.667071e-05 
  845000   0.64031243   -3.9835202   0.17926256   -2.9238281 -3.5062534e-05 
  846000   0.83810389   -3.7557661   0.62024715   -1.9831261 -0.00012871991 
  847000   0.92957095   -4.2212923   0.28220423    -2.660928 -0.00020196225 
  848000    1.1002791    -4.321345   0.57175348   -2.2367077 -8.4218927e-05 
  849000    1.2132193   -3.7303037   0.33866508   -1.7234621 -0.00011846304 
  850000   0.86758287   -3.7999829   0.51874783   -2.0883086 0.00031762072 
  851000    0.8836328   -4.1779898   0.46307938   -2.4999154 0.00011184472 
  852000    1.1610028   -3.9387293    0.4227833   -1.9195671 0.00027947616 
  853000    1.2415864    -3.459616   0.44939015   -1.3030445 -0.00010722217 
  854000    0.7101402    -3.469169   0.30625028   -2.1864759 -0.00019547719 
  855000   0.80207047   -4.1523042   0.35487934   -2.6945779 9.1716784e-05 
  856000   0.97493558   -3.6970094     0.314843     -2.04163 0.00012825624 
  857000    1.0872432   -3.3575554   0.24776888   -1.6148271 0.00015265407 
  858000   0.85618399    -3.570645   0.43567243   -1.9577195 -0.00026146831 
  859000   0.51805286   -4.0031294   0.80843181   -2.4823749 -0.00022571978 
  860000   0.74601212    -4.221014    0.4759453   -2.7193021 -0.00042834586 
  861000    1.2416788   -4.0189165   0.38598411    -1.925624 0.00030441169 
  862000     1.134664   -3.8712276   0.34603157    -1.965033 0.00017131804 
  863000    1.1844986   -3.8433108   0.58712867   -1.6274966 -0.00027967687 
  864000   0.58596408   -4.0381461   0.53282121   -2.6996243 6.9892542e-05 
  865000   0.65868421   -4.2672425   0.64215059   -2.7194011 -0.00031459408 
  866000    1.0332539   -4.2095136   0.80501949     -1.98377 8.6264235e-05 
  867000    1.0039995   -3.6759065   0.49619094   -1.7992163 0.00025434449 
  868000    0.9344239   -3.5763142   0.60827266   -1.6832087 -0.00010197496 
  869000   0.58444155   -4.0945154   0.26775039   -3.0231578 3.1946271e-05 
  870000   0.87654589   -3.8671457   0.23276124   -2.4291338 0.00021038778 
  871000   0.98856369   -3.5840349   0.61389567   -1.6108641 -4.8639058e-05 
  872000    1.1061986   -3.8823907    0.3841727    -1.977195 0.00034764181 
  873000   0.82235097   -3.7136478   0.40120122   -2.1817139 -0.00038166006 
  874000    1.0529754   -4.5815203   0.54874371   -2.5849354 -3.0633994e-05 
  875000     1.385871   -3.9739839   0.61689906   -1.4515122 0.00011776759 
  876000   0.84759425   -3.8826522   0.91781486   -1.7993953 0.00043992914 
  877000   0.90358079   -3.5757583   0.61320763   -1.7201271 0.00017517271 
  878000   0.74534313   -4.1763809   0.25041772   -2.9011164 0.00023814326 
  879000   0.73105467    -2.831215   0.27650852   -1.5495063 0.00025888571 
  880000    1.1928327   -3.9408524   0.47722611   -1.8234813 4.0089227e-05 
  881000    1.3024999   -1.8399494   0.41862241   0.36961035 8.2344717e-05 
  882000   0.75489473   -2.7372931   0.37286833   -1.3264445 9.7838968e-05 
  883000   0.73361896   -3.6521783   0.44474642   -2.1987058 -0.00038539234 
  884000   0.76337397   -3.9472005   0.74005194   -2.1575094 -0.00023101881 
  885000   0.97042567   -3.5097205   0.64972712   -1.5256581 -0.00021543109 
  886000    0.8005865   -3.7204322   0.67447974   -1.9451461 0.00030209631 
  887000   0.87831731    -4.111373   0.26410835   -2.6395784 -1.6298099e-05 
  888000    1.0537105   -4.4408815    1.2279146   -1.7641149 -0.00015300155 
  889000   0.64314341   -4.1305953   0.40981222   -2.8364609 0.00033907049 
  890000   0.81997645   -3.9282458   0.56233246   -2.2384458 9.3105394e-06 
  891000    1.0235506   -4.2071544   0.29386195   -2.5059104 0.00017559954 
  892000   0.84065941   -3.3838944   0.55162099   -1.6763667 -6.4553401e-05 
  893000    1.1356304   -3.9900174   0.35092964    -2.077596 -0.00013144114 
  894000   0.93721171   -3.9960865   0.75793948   -1.9494809 -0.00038708715 
  895000    1.6830536   -4.2841159   0.57322772   -1.3966895 2.0049568e-05 
  896000   0.68191344   -4.0421587   0.66567496   -2.4388528 -2.8916261e-05 
  897000    1.0048369   -3.8172474   0.35772226   -2.0778744 0.00025207306 
  898000    1.1352523   -3.6891066   0.36325783   -1.7648768 0.00021543089 
  899000    1.0032384   -4.2242784   0.20769478   -2.6371307 0.00020489681 
  900000    1.0962419   -3.5583142   0.61092479   -1.4400568 -0.00022272868 
  901000   0.57928222   -3.8696608   0.30989351   -2.7632542 0.00013511659 
  902000   0.93516987   -3.5514972   0.33143947   -1.9341992 0.00061566027 
  903000    1.1530764   -4.3798486   0.50587957   -2.2884889 -0.00021743292 
  904000    1.0026791   -3.4013333   0.25681854   -1.7658309 0.00038156522 
  905000   0.69423041   -3.3797722   0.44565147   -1.9795539 0.00013149692 
  906000    1.0645883   -3.9481279   0.19968233   -2.2846366 0.00036688741 
  907000   0.92300605   -4.0746582   0.71862345   -2.0869014 -8.6274908e-05 
  908000   0.81801471   -4.3008762   0.41020438   -2.7659016 0.00024509184 
  909000    1.2781657   -4.1301851   0.19158696   -2.1811204 -7.0825807e-05 
  910000    1.2608592   -2.6193293   0.36035824  -0.52528966 -4.9762411e-06 
  911000   0.62464674   -3.8117886   0.78988309   -2.1630163 -0.00034960523 
  912000    1.2713312   -4.1323393   0.21097428   -2.1732847 8.8785936e-05 
  913000   0.70876825   -3.0839344   0.66618659   -1.4431915 -3.624002e-05 
  914000    1.3231225   -3.4105341   0.42704797   -1.1641927 -0.00019737377 
  915000    1.1956295   -3.6876326   0.54979729   -1.4938447 0.00017190923 
  916000    1.4440691   -4.2859696   0.53692729   -1.7634473 -0.00025832771 
  917000   0.80635045   -3.9509016   0.31231326   -2.5298565 -0.00021617601 
  918000   0.99038658   -3.7934514   0.53959047   -1.8920794 0.00013586032 
  919000   0.94660519   -4.1561972   0.28072182   -2.5738933 -8.0858707e-05 
  920000    1.1559643   -3.0872784   0.65232181  -0.84550577 -0.00020277424 
  921000   0.96255014   -3.6240512   0.57322242   -1.7273223 -0.00027130765 
  922000    1.0783116   -3.6509396   0.74821212    -1.420049 -0.00022364208 
  923000   0.62518005   -3.7382183   0.59018681   -2.2884089 -9.8857454e-05 
  924000    1.6022971   -4.2890017   0.22181409   -1.8640291 0.00017744894 
  925000   0.97711904   -4.0837177    0.4046385   -2.3355405 -0.00029372978 
  926000   0.62939914    -4.018458   0.95890964   -2.1941246 -0.00024893124 
  927000   0.90384452   -2.9674062   0.12114636   -1.6034737 -9.3756354e-05 
  928000   0.94672173   -3.8199116   0.34324046   -2.1749288 -1.8564244e-05 
  929000    1.1763022   -4.1295566   0.54029435   -1.9718467 -0.00022095318 
  930000   0.71486019   -4.2275435   0.29785398   -2.9467567 -0.0002696285 
  931000    1.0624662   -3.7250621   0.16728769   -2.0968833 0.00033522061 
  932000    1.0457724   -3.2574857   0.12064158   -1.6989072 0.00013531624 
  933000    1.0992712   -3.9931406   0.24124561   -2.2403971 0.00040150458 
  934000   0.54083188   -3.9145406   0.48880598   -2.6820907 -9.32282e-05 
  935000   0.87986103   -3.9764486   0.59687964   -2.1697601 -6.0494071e-05 
  936000      1.21913   -3.8880443   0.45237106   -1.7593694 0.00022292035 
  937000    1.0068826   -4.0863295    0.5656564   -2.1362095 -0.00011647253 
  938000   0.77598301   -4.2302488   0.61946612   -2.5438061 -0.00012834999 
  939000    1.0506887   -3.8694276   0.56384928   -1.8608813 8.0555619e-05 
  940000   0.51537684   -4.0797336   0.31997386   -3.0511166 -0.00020916435 
  941000    1.0935315   -3.7197601   0.63846837   -1.5776859 0.00017813043 
  942000    1.3366637   -4.1348872   0.34126809   -1.9557065 0.00030982588 
  943000   0.96138683   -4.0913877   0.53188246   -2.2375984 -4.6885995e-05 
  944000     1.127694   -4.2139858   0.37748767   -2.2859189 0.00027301177 
  945000    1.2256652   -4.1909707     1.162572    -1.343109 -0.0005248728 
  946000    1.5318497   -4.2918334   0.54334003      -1.6422 0.00010616423 
  947000   0.99852407   -4.2146861   0.35885209   -2.4828635 -0.00012288447 
  948000    1.1211749   -3.9377136   0.53343501    -1.862663 0.00018480016 
  949000    1.2424064   -4.0940214   0.55860117   -1.8271114 0.00011584516 
  950000    1.1495874   -4.1225708   0.33284396   -2.2090442 0.0002617211 
  951000   0.91698422     -4.40527   0.74868438   -2.3957324 -0.00013336012 
  952000    1.3505274   -4.0862022   0.40104936   -1.8281776 0.00036828921 
  953000     1.539743   -4.0956544   0.70031374   -1.2781941 -0.00033323495 
  954000   0.92989534   -3.3082808   0.49230318   -1.5373715 -0.00033751283 
  955000   0.88319548   -4.3028421   0.22118969   -2.8672586 0.00018552733 
  956000    1.0037771   -3.9768263    0.5291434   -2.0674893 0.00022587672 
  957000    1.1734264    -4.292654   0.24843405   -2.4307586 0.00024361659 
  958000     1.099221   -3.9462669   0.29324057   -2.1415975 0.00030847608 
  959000    1.1726063   -4.1720762    0.1148769   -2.4448656 0.00025756849 
  960000    1.3011332   -3.9376727    0.6838539   -1.4647606 -0.00016461052 
  961000    0.9508665   -4.0668151   0.71049683   -2.0488768 -0.00027769233 
  962000    1.0685227   -3.6359658   0.79288978   -1.3738572 4.6402999e-05 
  963000    1.0114732   -3.7713722   0.39952001   -1.9810766 0.00016850039 
  964000    1.2197365   -4.1824471   0.12064532   -2.3846641  5.26919e-05 
  965000   0.97102091   -4.0141192   0.18661658   -2.4923489 0.00039968885 
  966000    1.0157191   -3.2382774   0.71836959    -1.123294 0.00052683969 
  967000    1.1872002   -4.0172246   0.24711627   -2.1377081 0.00025068065 
  968000    1.2035885   -3.8242133   0.31232202   -1.8569572 2.4057996e-05 
  969000   0.97911147   -4.1123954   0.24240729   -2.5237099 -2.9519107e-05 
  970000   0.62642622   -4.3130146   0.72411623   -2.7275623 0.00015535239 
  971000    1.1247884   -4.0385202   0.41290627   -2.0790299 -2.8439987e-05 
  972000   0.81634319   -3.8734347   0.54374063   -2.2072222 0.00025973972 
  973000   0.99444068   -4.1156754   0.66294813   -2.0853713 -0.00026712237 
  974000    1.1992862   -4.0592634   0.64096117   -1.7692837 9.527069e-05 
  975000    1.1027089   -3.9666683   0.63027259    -1.820171 -0.00036816949 
  976000   0.86494395   -3.3839459   0.10969161   -2.0849564 0.00044483268 
  977000   0.93065479   -4.2999643   0.29947845   -2.7208355 -0.00023077907 
  978000    1.0371064   -3.8943864   0.17298504     -2.29538 0.00014188374 
  979000   0.81254463   -4.2554513    0.3644029   -2.7737995 0.00052680909 
  980000    1.1149067   -3.6782728   0.38633579   -1.7589403 2.8294045e-05 
  981000    0.7330152   -4.3355825   0.45464811   -2.8730385 -0.00011969968 
  982000   0.74867743   -4.2438476   0.52133589   -2.6930802 -4.4913279e-06 
  983000     1.381241   -3.8008002   0.23688765   -1.6647062 0.0004097443 
  984000    1.1986967   -3.6848778   0.47151676   -1.5651531 6.6790334e-05 
  985000   0.94210182   -4.3604982   0.44658533   -2.6185229 -2.2160093e-05 
  986000    1.0334829   -4.1692497   0.27162625   -2.4765845 0.00012965231 
  987000    1.0573433   -2.4037976   0.79886926  -0.15108127 -7.3838225e-05 
  988000    0.9751689   -4.3170187   0.53029406   -2.4458674 -3.7640452e-05 
  989000   0.59979416   -3.7496733   0.35650448   -2.5684519 -3.1832157e-05 
  990000    1.4621842   -4.3258502   0.41580316   -1.8995438 -0.00024715016 
  991000    1.4487497   -4.1037788   0.37311066   -1.7386373 7.824125e-05 
  992000   0.87519924   -4.0037311   0.34409596   -2.4562362 0.0002256288 
  993000   0.90300828   -3.7057647   0.59000256   -1.8741257 4.6990918e-05 
  994000    1.0984352   -4.2143931   0.42409037   -2.2799543 -4.666366e-06 
  995000   0.94367307    -4.164361   0.59301497   -2.2737955 7.1759274e-05 
  996000   0.89010887   -3.8138234   0.38591307   -2.2040107 -0.00014877074 
  997000    1.0354512   -4.0730889     0.239806   -2.4095375 -0.00025094291 
  998000   0.88548961    -3.847139    0.1369221   -2.4926687 -0.00020190106 
  999000   0.74491926   -3.9259868   0.42495299   -2.4767698 2.0148533e-06 
 1000000   0.93870558   -4.1494438   0.30264631   -2.5560774 -9.9034547e-05 
 1001000    1.0740917   -3.9713388   0.68569814   -1.8087645 -0.00015931519 
 1002000   0.63964993   -3.6473966   0.72636025   -2.0415177 -0.00033610519 
 1003000    1.5387727   -4.1384898   0.47186942   -1.5508079 -0.0001324569 
 1004000    1.0145274   -3.8036115   0.36669629   -2.0419401 0.00056839272 
 1005000      1.43297   -3.9486058   0.64414424   -1.3341278 0.00013951122 
 1006000   0.87451284   -3.9892279   0.33893178   -2.4478409 -0.00012178256 
[...]
49754000    1.4335068   -4.3866042    1.0048294   -1.4107029 -0.00016313659 
49755000    1.0080111   -2.9132981   0.49514096    -1.032142 -9.5924306e-05 
49756000   0.82006696   -4.1095451   0.32281456   -2.6591384 -3.6342031e-05 
49757000    1.2019116   -3.6513185    0.7795053   -1.2191847 -0.00016977989 
49758000   0.56154814   -3.9283013   0.68347954    -2.472693 -0.00049772009 
49759000    1.3390802   -2.9224253   0.38508953  -0.69610044 -0.00014053118 
49760000    1.3104327   -4.2388453   0.26701404   -2.1699863 0.00044969631 
49761000    1.2053945   -3.8589256   0.31440444   -1.8871038 4.2395138e-05 
49762000   0.89381339   -3.9788495   0.55491769   -2.1949384 1.3977961e-05 
49763000    1.0462406   -4.1151708   0.20707424   -2.4695158 7.2079941e-05 
49764000   0.88876042   -4.2948198   0.94692363   -2.1258506 -2.4675186e-05 
49765000   0.93158213   -4.4972609   0.26749145    -2.948844 -9.1032762e-05 
49766000   0.85812164   -3.9510608   0.23900363   -2.5321399 -6.1490685e-05 
49767000    0.8628157   -3.7531409   0.29753485   -2.2692344 -0.00022862064 
49768000    1.1356286   -3.9961654   0.26471519   -2.1699609 4.4134872e-05 
49769000   0.96316263   -3.8540128   0.39322125    -2.136443 -9.4541633e-05 
49770000   0.73373104    -3.888705   0.52259226   -2.3572325 -0.00015902254 
49771000    0.9811968   -4.3337866   0.36542108   -2.6192199 0.00035822091 
49772000   0.60888119   -3.5705756   0.34674638   -2.3866175 -0.00018806428 
49773000    1.2637742    -4.022771   0.37771255    -1.907369 -5.427534e-05 
49774000   0.80338995   -3.5419272   0.55888988   -1.8783761 -0.00048631824 
49775000   0.70066805   -3.5963849   0.38128642   -2.2516799 7.4231646e-05 
49776000    1.3584996   -3.7601403    0.5128988   -1.3793047 2.4617617e-05 
49777000   0.88891551    -4.045006    0.3730473   -2.4496998 0.0006088568 
49778000    0.9840933   -3.7519776   0.46479947   -1.9340498 0.00062935471 
49779000   0.79912889   -4.2034241   0.49298029   -2.6116415 -0.00022774351 
49780000   0.84587219   -3.7830075    0.5263232   -2.0936101 2.2979074e-07 
49781000   0.61761385   -3.7227821   0.41165993   -2.4619031 -7.1131803e-06 
49782000   0.99141541   -4.5430621   0.47987245   -2.6999935 -8.7041643e-05 
49783000    1.1168959   -3.7067561   0.70864513   -1.4623792 5.3335242e-05 
49784000   0.90084408   -4.3553181   0.56322951   -2.5534279 2.475953e-05 
49785000   0.97545048   -4.2166414   0.61727006   -2.2581269 -0.0001919587 
49786000    1.4216963   -3.4485898   0.50414005  -0.98961736 -3.2798733e-05 
49787000    1.0282681   -3.4644802   0.35449933   -1.6961122 0.0004219734 
49788000   0.91385726   -4.1019314   0.34899061   -2.4963871 1.1516884e-05 
49789000    1.1175585   -4.2181927   0.31496026   -2.3665894 6.7002644e-07 
49790000    1.2865121   -4.0795152   0.46935145   -1.8412097 -0.00011685681 
49791000    1.3249356   -4.0399068   0.22931072   -1.9888096 0.00029623774 
49792000    1.2182817   -4.1145987   0.48736573   -1.9520957 -0.00023144536 
49793000    1.1096206   -3.2829497   0.68336937    -1.073852 -0.00027218188 
49794000   0.71697034   -4.1928206    0.3793859   -2.8276004 -0.00026806122 
49795000    0.9508783   -4.0356339   0.46002744   -2.2681488 -0.00012103682 
49796000    1.3696292    -4.167003   0.36148397    -1.922279 -8.1606545e-05 
49797000     1.288153   -4.1961252   0.33607847   -2.0888364 0.00018988341 
49798000   0.91198407   -3.5508687   0.65223534   -1.6446553 -6.5860173e-05 
49799000   0.61984226   -3.7926281    0.5039288   -2.4364162 -4.2580799e-05 
49800000   0.87820385   -4.1276295   0.31566904   -2.6044302 0.00015001532 
49801000    1.0540683   -3.4108437   0.26268456   -1.6988152 0.00026829297 
49802000     1.148722   -4.0180521   0.18398156   -2.2545778 8.1535954e-05 
49803000    1.0131979    -2.594029    0.4530606  -0.74782125 0.00026667872 
49804000     1.023226    -3.791849     0.489727   -1.8951862 -1.2028557e-05 
49805000   0.92551737   -4.0906548   0.32978724   -2.4882812 -4.2004858e-05 
49806000   0.74059461   -3.8161592   0.19383896   -2.6040027 6.8082413e-05 
49807000   0.78878234   -4.1181187   0.69999111   -2.3335519 -0.00012090712 
49808000    1.3753427   -4.0011842   0.52353475   -1.5865532 5.2426672e-05 
49809000   0.88071737   -4.2789659   0.73544916   -2.3325304 -7.0405782e-05 
49810000   0.83295777   -3.0409784    0.8305005   -1.0651609 0.00054091069 
49811000    1.1465821   -3.6852772   0.53654847   -1.5721783 0.00024369473 
49812000    1.0817461   -4.0586961   0.40150312   -2.1697921 8.0369587e-05 
49813000    1.4599139    -3.214416   0.71636761  -0.49066678 -0.00029023607 
49814000   0.96794308   -3.5435877   0.43980695    -1.772859 -0.00019110746 
49815000    1.0983736   -4.0421447   0.53160192   -2.0002791 2.5075491e-06 
49816000    1.7520943   -4.2105604   0.29246619   -1.5089645 0.00030016807 
49817000   0.81532294    -4.243721   0.25218884   -2.8704631 -1.597285e-05 
49818000    1.1548807   -4.2483035   0.48035043    -2.179992 -0.00034941648 
49819000   0.86468105   -3.7940616   0.40049685   -2.2046283 0.00022976509 
49820000   0.76604002   -4.0208191   0.61634598   -2.3511681 -0.000182086 
49821000    1.6060731   -3.7396355   0.33197832   -1.1993067 -0.00012299122 
49822000    1.1090895   -4.3136838   0.21658301   -2.5721026 4.9790805e-06 
49823000    1.5503804   -3.7091302   0.52380646   -1.0535506 -6.0297609e-05 
49824000   0.94574786   -4.1289624   0.31257807    -2.515981 0.0003219741 
49825000   0.97412071    -3.899841   0.21817386   -2.3422512 0.00041669737 
49826000   0.96546984   -4.0421121   0.54095967   -2.1736314 -0.00021289797 
49827000   0.97295448   -3.9295054   0.47277203    -2.118921 -5.0090696e-08 
49828000   0.96497671   -2.7412074   0.23619584   -1.1781685 -2.8746028e-05 
49829000    1.1181547   -4.2541787   0.56632989   -2.1503861 0.00042589146 
49830000    1.0669171   -3.5019602   0.19930964   -1.8356395 4.2662902e-05 
49831000    1.0536712   -3.7798596    0.3864645   -1.9445972 0.00028419968 
49832000    1.3350764    -3.465142   0.34718994   -1.2822219 4.5230729e-05 
49833000    1.2108611   -4.1695679   0.18596899   -2.3186649 0.00024300566 
49834000    1.0115832    -3.437594   0.26826515   -1.7784019 4.3766969e-05 
49835000   0.85633688   -4.2245755    1.0431561   -2.0039562 -9.2695198e-05 
49836000    1.0145185   -3.7595649   0.21946814   -2.1451338 -4.5169382e-05 
49837000   0.74830811   -4.0555462   0.22698554   -2.7996371 -0.000253151 
49838000   0.77145599   -4.2146848   0.42699818   -2.7269346 -1.2231715e-05 
49839000   0.90530652   -4.0274761   0.80633476   -1.9763448 -0.0002996527 
49840000   0.89982914   -3.9502911   0.72379185   -1.9892342 0.00042181475 
49841000    1.3599865   -4.1039691   0.32399895   -1.9099887 0.00017695584 
49842000   0.56389539   -4.3656392   0.29373446   -3.2965486 0.00011870441 
49843000    1.2007986    -4.018234   0.48313653   -1.8839994 -5.4154902e-06 
49844000   0.79344615   -4.5292129   0.37811409   -3.0601103 -0.00013349515 
49845000    1.1214005   -3.9464636   0.27360268   -2.1309352 0.00030481883 
49846000   0.77900326    -3.552236   0.16628967   -2.3148169 0.0001893747 
49847000    1.1064137   -3.9220648   0.29182972   -2.1089163 0.00018750078 
49848000   0.76737182   -3.9736025   0.44517021   -2.4732961 -9.6910817e-07 
49849000    1.0012698   -4.0978293   0.66550073   -2.0555826 -0.00011382411 
49850000      1.02138   -4.1539503   0.61153021   -2.1380226 8.9132785e-05 
49851000   0.91145582   -4.4930186   0.56110136   -2.6786655 3.2896247e-05 
49852000    1.1074725   -4.3266774   0.45103011   -2.3528725 -0.00023683866 
49853000   0.64955948   -4.0469102   0.15349054   -3.0002754 8.963857e-06 
49854000    1.2775113    -3.863879   0.26779579   -1.8395052 0.00061906992 
49855000    1.0453366   -3.9450707   0.28211376   -2.2256191 -2.7521072e-05 
49856000     1.015291   -2.5652056   0.27916754  -0.89001293 0.00018980888 
49857000   0.77848321   -3.1866733   0.49852883   -1.6177301 0.00013422181 
49858000    1.2613049   -3.2960394   0.87660699  -0.68513825 -0.00031469887 
49859000    1.0270189    -4.193719   0.39201586    -2.389552 -0.00027029425 
49860000    1.1994907   -4.0530714   0.12319872    -2.280573 0.00011930811 
49861000    1.0560318   -3.5784332   0.40976649    -1.716623 -0.0001120105 
49862000    1.6865278   -3.7556633    0.4768809  -0.95980672 0.00027563791 
49863000   0.95630823    -3.983579   0.72821966   -1.9404355 0.00040481686 
49864000    1.0412453   -3.5934445   0.59490823    -1.566824 0.00024801868 
49865000   0.98243871   -4.1625774   0.24028866   -2.5714355 7.9184267e-05 
49866000    1.1882131   -3.2132546   0.49438517   -1.0850764 -0.00019118398 
49867000   0.93597077    -4.104453   0.27163252   -2.5458607 -0.00026982523 
49868000   0.83991453   -4.1378406    1.0039042   -1.9790539 -0.00067377196 
49869000   0.87439087   -3.3711912   0.26712371   -1.9017801 0.00057824282 
49870000   0.98282692   -3.0675109   0.69788004   -1.0182439 -0.00010032214 
49871000    1.1381112   -3.6992932   0.37886955   -1.7555208 0.00027113906 
49872000    1.4356695   -3.0040197   0.44286485  -0.58710931 -3.8826775e-05 
49873000    0.6440106   -3.6972692   0.27369469   -2.5380599 -2.991539e-05 
49874000   0.98392928   -4.2154409   0.38004217   -2.4824959 -0.00017026708 
49875000    1.1415401   -4.2426457   0.87729854   -1.7957295 -9.3452387e-05 
49876000    1.4528297    -4.132274    1.0076009   -1.1270322 -0.00029327459 
49877000    1.1584947   -3.6113655     0.567044   -1.4513913 -0.00011137499 
49878000     1.059056   -4.0783131   0.69421135   -1.9278996 -0.00027125961 
49879000   0.72116618   -3.6127172   0.76287388   -1.8582398 -0.00028929219 
49880000   0.74157595    -4.348936   0.72563931   -2.6036298 0.00026432062 
49881000    1.4927639    -3.877129   0.61942331   -1.2051553  -5.1044e-05 
49882000   0.94355656   -3.2780977   0.69437261   -1.2863348 -7.0637673e-05 
49883000    1.5875871   -3.9743485   0.30871757   -1.4826987 0.00034842151 
49884000   0.82694462    -3.817506   0.45110123   -2.2293559 1.1721544e-05 
49885000   0.82962205   -3.9942079    0.4895469   -2.3639307 -7.3109504e-05 
49886000    1.2883392   -4.2942409   0.41031402   -2.1124605 0.00016394551 
49887000   0.67512205    -4.171289    0.4087218   -2.8342744 0.00022885607 
49888000    1.1220971   -3.8779086   0.19437681   -2.1406483 -5.843012e-06 
49889000    1.0963694     -3.23303   0.44517468   -1.2803474 -0.00018503533 
49890000   0.72728044   -3.9777929   0.35281892   -2.6249634 0.00022993487 
49891000    1.0030842   -3.5858685   0.64821824   -1.5584095 -0.00030212063 
49892000   0.93532196    -4.258003   0.46313055   -2.5088047 -6.4316855e-05 
49893000    1.2748749   -3.0694917   0.70084185  -0.61569688 2.9193864e-05 
49894000   0.65000325   -4.2198637   0.42683716   -2.8992721 -4.8137713e-05 
49895000    1.3485913   -3.6162347   0.44280382   -1.3191179 -0.0002125336 
49896000   0.86302951    -4.060051   0.75981219   -2.1135733 1.1201227e-05 
49897000    1.0721423   -4.3252603   0.31311824   -2.5379464 -0.00016747618 
49898000    1.0500052   -4.4324014   0.90192484   -2.0867194 -0.00021322748 
49899000   0.89407287   -4.3189034   0.36254303   -2.7270102 0.00027455468 
49900000    0.8370559    -3.308241   0.49910318    -1.658186 0.00016478903 
49901000   0.64718912   -4.2581797   0.84589783   -2.5223968 -0.0002827204 
49902000   0.79274877    -3.753051   0.60692062   -2.0561008 -0.0002407214 
49903000     0.707076   -4.0933729   0.65149428   -2.4696492 -0.00048981474 
49904000    0.6339508   -3.9441163   0.47420411   -2.5982298 6.7336952e-05 
49905000   0.93220335   -3.4256288   0.58587538   -1.5579738 -0.00050672082 
49906000    1.0276652   -3.8712797   0.41067699   -2.0475631 4.9616083e-05 
49907000    1.0529778   -3.3892753   0.35253731   -1.5888935 -0.00038834915 
49908000   0.64544438   -2.9003104   0.49348421   -1.5193401 -5.3292206e-05 
49909000    0.7916949   -1.8320638    0.4542542  -0.28922906 -7.3877736e-05 
49910000   0.73529842   -1.6280507   0.24304549  -0.37396988 0.00015045318 
49911000    0.9458221   -4.2307745   0.32364951   -2.6066197 0.00023327102 
49912000   0.63394284   -4.1350495   0.96221376   -2.3011644 3.8986205e-05 
49913000    1.2972006   -4.0484608   0.97035932   -1.2944507 -7.7675249e-05 
49914000    1.0413036   -4.1880991   0.51954139   -2.2367652 3.8886102e-05 
49915000    0.9940031   -1.6553448   0.29580706 0.0072165571 -8.720593e-05 
49916000    1.0794524   -1.3974705   0.84956856   0.93634515 -0.00019592856 
49917000    1.1209863    -2.077132    0.7408378   0.20506195 -0.00031065265 
49918000    1.0237608   -1.8838729   0.44066066 -0.035541192 0.00047638439 
49919000   0.92160061   -1.5598911    1.0662052   0.77351493 -0.00022037188 
49920000    1.3158575   -2.9380599   0.60008655  -0.52866925 -3.2988003e-05 
49921000   0.93042118   -4.0034221   0.52054375   -2.2035492 -0.00022750316 
49922000   0.99843984   -3.8167704   0.36730077   -2.0766148 -2.4135575e-05 
49923000    1.4776661   -3.8680443   0.20218109   -1.6340723 0.00043365444 
49924000    1.0807534   -3.6000378   0.30186636   -1.8121355 0.00050217986 
49925000    1.1540945    -4.052158   0.30982841   -2.1554496  0.000134399 
49926000   0.64783939   -4.2433454   0.91221491   -2.4403514 -0.00023317851 
49927000   0.97167526   -4.4092954   0.50941755   -2.5638244 -3.3279132e-05 
49928000   0.87361261   -3.9724138   0.38729777   -2.3838987 0.0001176404 
49929000     1.254962   -4.0218316   0.48341936   -1.8128394 -0.00012846902 
49930000    1.2647939   -4.1883031   0.26692278   -2.1822888 1.841365e-05 
49931000   0.76948465   -4.1338457   0.94220428      -2.1336 -0.00047325787 
49932000   0.91318213   -3.6701024   0.51505384   -1.8994231 -0.00030190709 
49933000    0.7913174    -3.580054   0.63209511   -1.8598974 0.00015716231 
49934000    1.0025909   -4.1306594   0.47456293   -2.2775341 1.1333093e-07 
49935000    1.2646156   -1.6297174   0.47119439   0.58032347 0.00024695324 
49936000   0.90773383   -2.3611461   0.43743608  -0.67557601 -9.5532601e-05 
49937000   0.97231517   -1.5650499   0.63425497   0.40613841 -0.00013534963 
49938000      0.97852   -1.1003745   0.47188275   0.71697327 -0.00019516962 
49939000    1.1634823   -3.6165157   0.68117123   -1.3355564 -0.00019838602 
49940000   0.87585931   -3.9007866   0.37275301    -2.323727 -0.00020614174 
49941000   0.90099575   -3.4008772   0.55294039   -1.6090676 -0.00012194946 
49942000    1.5237683   -3.6349237     0.340984   -1.1987582 2.8652231e-05 
49943000     1.381914   -3.7204169   0.31792937   -1.5023558 0.00031171201 
49944000     1.057208   -3.1497917   0.53853493   -1.1575958 -3.6035472e-06 
49945000    1.2501562   -4.0422392    0.2047287   -2.1185458 0.00024274852 
49946000   0.92218421   -4.1881846   0.38240323   -2.5377781 -7.2471783e-05 
49947000   0.82287032   -4.4840373   0.27069866   -3.0818919 -8.392656e-05 
49948000    1.0305013   -3.7028069   0.31065557   -1.9752121 5.0051825e-05 
49949000   0.93058447   -3.9057619   0.86249625    -1.763712 0.00020348898 
49950000    1.1223616   -4.2563389   0.63323965   -2.0798521 -5.5906751e-05 
49951000    1.8832674     -4.12481   0.48467028   -1.0506471 0.00020721841 
49952000     1.179214   -4.0537688   0.56484571   -1.8675038 -0.00029546951 
49953000   0.75693569   -4.2426542   0.59535676   -2.6065109 -0.00012741369 
49954000   0.91256677    -3.527199   0.89392813   -1.3784916 -0.00040752919 
49955000   0.92716786   -3.7859405   0.51251658   -1.9985681 -6.7957934e-05 
49956000   0.80038558   -3.9405307    0.3219594   -2.5180411 2.4783046e-05 
49957000   0.95310798    -3.876349   0.38847402   -2.1773515 0.00037007408 
49958000     1.047713   -3.7911955   0.45110028   -1.8994898 0.0002316319 
49959000   0.90949698   -3.5860254   0.48949336   -1.8459737 0.00022850563 
49960000    1.1235136   -3.4027634   0.34472267   -1.5132096 -1.8371035e-06 
49961000   0.99514867   -3.7483188   0.87158742   -1.5084019 -0.00018287677 
49962000    1.5573361   -3.7912105   0.36060951   -1.2892639 -0.00022299166 
49963000   0.60735025   -4.1128998    0.5460625   -2.7317307 -7.5172886e-05 
49964000    1.1974756   -4.5127562   0.63847742   -2.2277499 -5.1837079e-05 
49965000    1.2744895   -4.3919785    0.5949886   -2.0445668 -0.00020649542 
49966000   0.96821563   -4.0159402   0.11813548   -2.5665083 9.7314609e-05 
49967000   0.89973388   -3.8250089    0.9282052   -1.6596696 -0.00042688833 
49968000    0.9314736   -3.4568495   0.35055124    -1.825522 0.00010694318 
49969000    1.3837585   -4.2313309   0.27881579   -2.0498472 0.00011098837 
49970000   0.88791837   -3.8942348   0.38426042   -2.2890867 4.9565889e-05 
49971000   0.82381847   -3.8268065   0.40848841   -2.2855677 0.00019211527 
49972000    1.0899411   -4.3931817   0.20153867   -2.6929739 7.3313283e-06 
49973000     1.161363   -4.2912071    0.5642738   -2.1300592 0.00026220181 
49974000   0.89992131   -4.0115207   0.40852891      -2.3656 -0.00019615372 
49975000    1.2365835   -4.0291417   0.25929166   -2.0695478 0.00015239699 
49976000    1.3274895   -4.0461116   0.77189373   -1.4489199 -0.00012642948 
49977000    1.3355489   -3.8508253   0.23150363   -1.7829419 0.00015074055 
49978000    0.7994901   -3.9836503   0.56946066   -2.3148907 -6.6904323e-05 
49979000    1.0488666   -3.6733451   0.38835177   -1.8428018 0.00036960872 
49980000    1.1176912   -3.5803253   0.36751482    -1.675985 0.00027904236 
49981000   0.90733087   -4.0022544   0.49926549    -2.255409 0.00010071117 
49982000    1.2725095   -3.8657156   0.21806883   -1.8979462 -0.00010606252 
49983000   0.57003771   -4.1785334   0.38012146   -3.0146101 -0.00022375778 
49984000   0.85939117   -3.3397646   0.30769977   -1.8504019 -0.00044381189 
49985000    1.0344787   -3.7524844   0.47487323   -1.8552029 -6.1375766e-05 
49986000   0.76186624   -3.9372334   0.62114295   -2.2685243 -0.00031977867 
49987000    1.0478128   -4.0498712   0.38213129   -2.2269972 -0.00021352073 
49988000    1.2445133   -4.3556997   0.77073496    -1.873759 -4.6769023e-05 
49989000    1.1573322   -4.3190558   0.93803586   -1.7896881 -4.6058118e-05 
49990000    1.1670833   -4.2255291   0.55486219   -2.0659274 0.00022632312 
49991000   0.78806117   -3.8362374   0.69390937   -2.0587439 0.00014187898 
49992000   0.78311876   -3.9545008   0.38067986   -2.4970326 6.0369811e-05 
49993000     1.181714   -4.1776315   0.29536758   -2.2574072 0.00019419392 
49994000    1.3667661   -3.0695955   0.24971173  -0.94058039 0.00027124348 
49995000   0.67278782   -3.6654793  0.057095941   -2.6833002 -8.5963291e-06 
49996000    1.3765998    -3.215753   0.24960076   -1.0733275 0.00022124309 
49997000   0.90229259   -4.0856772   0.28092077   -2.5641042 0.00021039829 
49998000     1.015211   -3.8296773   0.77729965   -1.6564625 0.00038552613 
49999000    1.0259246   -3.0869346   0.25556671   -1.4207216 0.00018683385 
50000000    1.1044922   -3.9215895   0.19670854   -2.2062042 0.00010831913 
Loop time of 4361.84 on 1 procs for 50000000 steps with 12 atoms

Performance: 4952034.159 tau/day, 11463.042 timesteps/s
97.7% CPU use with 1 MPI tasks x no OpenMP threads

MPI task timing breakdown:
Section |  min time  |  avg time  |  max time  |%varavg| %total
---------------------------------------------------------------
Pair    | 23.628     | 23.628     | 23.628     |   0.0 |  0.54
Bond    | 12.964     | 12.964     | 12.964     |   0.0 |  0.30
Neigh   | 75.486     | 75.486     | 75.486     |   0.0 |  1.73
Comm    | 3659.3     | 3659.3     | 3659.3     |   0.0 | 83.89
Output  | 0.4562     | 0.4562     | 0.4562     |   0.0 |  0.01
Modify  | 580.16     | 580.16     | 580.16     |   0.0 | 13.30
Other   |            | 9.806      |            |       |  0.22

Nlocal:    12 ave 12 max 12 min
Histogram: 1 0 0 0 0 0 0 0 0 0
Nghost:    0 ave 0 max 0 min
Histogram: 1 0 0 0 0 0 0 0 0 0
Neighs:    28 ave 28 max 28 min
Histogram: 1 0 0 0 0 0 0 0 0 0

Total # of neighbors = 28
Ave neighs/atom = 2.33333
Ave special neighs/atom = 5
Neighbor list builds = 4034005
Dangerous builds = 845762
Total wall time: 1:12:41
