ITEM: TIMESTEP
0
ITEM: NUMBER OF ATOMS
12
ITEM: BOX BOUNDS pp pp pp
-2.5000000000000000e+01 2.5000000000000000e+01
-2.5000000000000000e+01 2.5000000000000000e+01
-2.5000000000000000e+01 2.5000000000000000e+01
ITEM: ATOMS id type x y z
1 1 6.06886 2.41981 -0.446266
2 2 6.98968 2.6441 -0.371261
3 3 7.53638 1.73181 -0.291972
4 4 7.78984 1.54398 0.769756
5 5 6.89278 1.88762 1.2778
6 6 6.23659 1.29406 0.808563
7 7 6.53224 0.333431 0.861763
8 8 7.0612 0.23081 1.64907
9 9 6.49108 0.656202 2.46846
10 10 5.56075 0.573438 2.20956
11 11 5.18519 -0.287683 1.7125
12 12 5.65542 -1.02758 1.35203
ITEM: TIMESTEP
10000000
ITEM: NUMBER OF ATOMS
12
ITEM: BOX BOUNDS pp pp pp
-2.5000000000000000e+01 2.5000000000000000e+01
-2.5000000000000000e+01 2.5000000000000000e+01
-2.5000000000000000e+01 2.5000000000000000e+01
ITEM: ATOMS id type x y z
1 1 7.22932 0.224369 2.85946
2 2 6.38044 0.664995 2.89203
3 3 5.78308 1.2081 2.25533
4 4 6.53905 1.96387 1.8841
5 5 7.15763 1.34545 1.60266
6 6 6.94272 0.504221 1.2289
7 7 6.09858 0.350215 0.786645
8 8 5.67769 1.09998 0.42822
9 9 6.23024 1.828 0.25348
10 10 6.99466 1.51286 -0.319863
11 11 6.76453 0.967206 -0.92377
12 12 6.20206 0.33073 -0.947189
