ITEM: TIMESTEP
0
ITEM: NUMBER OF ATOMS
12
ITEM: BOX BOUNDS pp pp pp
-2.5000000000000000e+01 2.5000000000000000e+01
-2.5000000000000000e+01 2.5000000000000000e+01
-2.5000000000000000e+01 2.5000000000000000e+01
ITEM: ATOMS id type x y z
1 1 6.06886 2.41981 -0.446266
2 2 6.98968 2.6441 -0.371261
3 3 7.53638 1.73181 -0.291972
4 4 7.78984 1.54398 0.769756
5 5 6.89278 1.88762 1.2778
6 6 6.23659 1.29406 0.808563
7 7 6.53224 0.333431 0.861763
8 8 7.0612 0.23081 1.64907
9 9 6.49108 0.656202 2.46846
10 10 5.56075 0.573438 2.20956
11 11 5.18519 -0.287683 1.7125
12 12 5.65542 -1.02758 1.35203
ITEM: TIMESTEP
10000000
ITEM: NUMBER OF ATOMS
12
ITEM: BOX BOUNDS pp pp pp
-2.5000000000000000e+01 2.5000000000000000e+01
-2.5000000000000000e+01 2.5000000000000000e+01
-2.5000000000000000e+01 2.5000000000000000e+01
ITEM: ATOMS id type x y z
1 1 4.88484 0.478021 2.55524
2 2 5.00156 1.46355 2.22396
3 3 4.87335 1.3957 1.19689
4 4 5.20313 0.749562 0.519818
5 5 5.88246 0.286137 1.20528
6 6 6.54457 0.990665 1.63106
7 7 6.73504 1.62859 0.718572
8 8 6.77829 0.952484 -0.0195316
9 9 7.43726 0.238429 0.455438
10 10 8.03291 0.641884 1.07159
11 11 8.42373 1.50159 0.698919
12 12 8.20286 1.67339 -0.257242
