LAMMPS (28 Feb 2019)
units lj

variable seed equal 1
variable dt equal 0.005
variable tau equal ${dt}*100
variable tau equal 0.005*100
timestep ${dt}
timestep 0.005

variable rise equal 1.5
variable rise_cut equal ${rise}*2.0
variable rise_cut equal 1.5*2.0
variable repulsive_dist equal 1.5
variable repulsive_cut equal ${repulsive_dist}*1.12246204831
variable repulsive_cut equal 1.5*1.12246204831

atom_style bond
dimension 3
read_data trajectory_polymer_unique_eps6.0_1.lammpsdata
  orthogonal box = (-25 -25 -25) to (25 25 25)
  1 by 1 by 1 MPI processor grid
  reading atoms ...
  12 atoms
  reading velocities ...
  12 velocities
  scanning bonds ...
  1 = max bonds/atom
  reading bonds ...
  11 bonds
  2 = max # of 1-2 neighbors
  2 = max # of 1-3 neighbors
  4 = max # of 1-4 neighbors
  6 = max # of special neighbors

bond_style harmonic
bond_coeff * 100.0 1.0

pair_style lj/cut ${rise_cut}
pair_style lj/cut 3
# type1 type2 epsilon distance cutoff
pair_coeff * * 3.0 ${repulsive_dist} ${repulsive_cut}
pair_coeff * * 3.0 1.5 ${repulsive_cut}
pair_coeff * * 3.0 1.5 1.683693072465
pair_coeff 1 5 ${eps} ${rise}
pair_coeff 1 5 7.5 ${rise}
pair_coeff 1 5 7.5 1.5
pair_coeff 2 6 ${eps} ${rise}
pair_coeff 2 6 7.5 ${rise}
pair_coeff 2 6 7.5 1.5
pair_coeff 3 7 ${eps} ${rise}
pair_coeff 3 7 7.5 ${rise}
pair_coeff 3 7 7.5 1.5
pair_coeff 4 8 ${eps} ${rise}
pair_coeff 4 8 7.5 ${rise}
pair_coeff 4 8 7.5 1.5
pair_coeff 5 9 ${eps} ${rise}
pair_coeff 5 9 7.5 ${rise}
pair_coeff 5 9 7.5 1.5
pair_coeff 6 10 ${eps} ${rise}
pair_coeff 6 10 7.5 ${rise}
pair_coeff 6 10 7.5 1.5
pair_coeff 7 11 ${eps} ${rise}
pair_coeff 7 11 7.5 ${rise}
pair_coeff 7 11 7.5 1.5
pair_coeff 8 12 ${eps} ${rise}
pair_coeff 8 12 7.5 ${rise}
pair_coeff 8 12 7.5 1.5
pair_modify shift yes
special_bonds lj 0.0 0.5 1.0
  2 = max # of 1-2 neighbors
  2 = max # of 1-3 neighbors
  4 = max # of 1-4 neighbors
  6 = max # of special neighbors


atom_modify sort 1 0.5

velocity all create 1.0 ${seed}
velocity all create 1.0 1
fix 1 all nvt temp 1.0 1.0 ${tau}
fix 1 all nvt temp 1.0 1.0 0.5
fix 2 all plumed plumedfile ${plumed_file}
fix 2 all plumed plumedfile helix_sf_f0_eps7.5_10000000.plumed.dat

dump 1 all dcd 5000 ${outprefix}.dcd
dump 1 all dcd 5000 helix_sf_pull0.dcd
dump 2 all atom ${steps} ${outprefix}.lammpstrj
dump 2 all atom 10000000 ${outprefix}.lammpstrj
dump 2 all atom 10000000 helix_sf_pull0.lammpstrj
dump_modify 2 sort id scale no

thermo 1000

run ${steps}
run 10000000
Neighbor list info ...
  update every 1 steps, delay 10 steps, check yes
  max neighbors/atom: 2000, page size: 100000
  master list distance cutoff = 3.3
  ghost atom cutoff = 3.3
  binsize = 1.65, bins = 31 31 31
  1 neighbor lists, perpetual/occasional/extra = 1 0 0
  (1) pair lj/cut, perpetual
      attributes: half, newton on
      pair build: half/bin/newton
      stencil: half/bin/3d/newton
      bin: standard
Per MPI rank memory allocation (min/avg/max) = 5.177 | 5.177 | 5.177 Mbytes
Step Temp E_pair E_mol TotEng Press 
       0            1   -3.6089506   0.35796656    -1.875984 -0.00029796377 
    1000   0.78976723   -4.3394542   0.31927228   -2.9342519 -0.00022256344 
    2000    1.3034518   -4.1999595   0.60726062   -1.8004526 0.00028238596 
    3000   0.72944203   -3.8530395   0.48154412   -2.3685126 0.00043221776 
    4000    1.2049688   -4.2814904   0.55471211   -2.0699461 0.00024378462 
    5000    1.2227027   -3.6407305   0.74559586   -1.2139184 -0.00019858859 
    6000    0.9672243   -4.1474929   0.28921536   -2.5283442 -9.2719043e-05 
    7000    1.0419187   -4.3143804   0.48450265   -2.3972396 -0.00024215552 
    8000   0.67617258   -3.6084605    0.6758838   -2.0028394 0.00013080205 
    9000   0.71177027   -4.3966331    0.5792689   -2.8386801 -0.00024771036 
   10000    1.1863748   -3.9637069   0.61298401   -1.7194576 -0.00016459601 
   11000    1.8050541   -4.0027915   0.43534963   -1.0854924 0.00027124423 
   12000   0.88629991    -4.049905   0.40840231   -2.4228403 5.5733794e-06 
   13000     1.284653   -4.0275798   0.28914164   -1.9720403 -0.00012703025 
   14000    1.6463086   -3.9378521   0.63537236   -1.0388055 -0.00012404786 
   15000     1.233614    -3.765792   0.37024849   -1.6993243 -4.0808037e-07 
   16000    1.2577101   -3.7139241   0.23493462    -1.749638 4.2027425e-05 
   17000      1.20548   -4.1996232   0.32563714    -2.216451 0.00010234891 
   18000    1.0103199   -4.2875054    0.6052044   -2.2931112 5.0353222e-05 
   19000   0.86653957   -3.5907205    0.4193815   -1.9798471 -0.00033144709 
   20000   0.64963807   -3.9694715   0.49101932   -2.5851998 7.3002376e-05 
   21000    1.0924568   -3.2968289    0.4678193   -1.3268814 -2.860498e-05 
   22000   0.69832634   -3.7524762   0.59975942   -2.1925181 -0.00013007691 
   23000   0.71470728   -4.1565591   0.73528109   -2.4385555 -0.00054377916 
   24000    0.9035345   -3.3833287   0.51105344   -1.6299154 9.3758613e-05 
   25000    1.7780323   -4.0008507   0.67581489  -0.88024138 0.00040240777 
   26000   0.80455215   -4.3733305   0.33912951   -2.9279418 0.00033281298 
   27000    1.0064669   -4.2352048   0.79748886    -2.053824 -0.00013306502 
   28000    1.0798861    -3.992197   0.21150566   -2.2958479 0.00021989277 
   29000   0.79688475   -3.4764267   0.90997426   -1.4707359 -0.00012758887 
   30000    1.3063086   -3.7647828   0.76045527   -1.2081533 -0.0001759266 
   31000   0.66399657   -3.7464245    0.2881783    -2.545251 -4.6686008e-05 
   32000   0.93078091   -3.7785949   0.59583818   -1.9029329 0.00019110617 
   33000      1.19598   -3.7907453   0.50007706   -1.6461958 0.00017285341 
   34000   0.92162061    -4.479149   0.26801982   -2.9439008 -0.00020749371 
   35000   0.81546099   -3.9685365   0.84036462    -2.006913 -0.00024028095 
   36000    0.5925494   -4.0300713   0.28573481   -2.9295811 -4.6072829e-05 
   37000    1.0172087   -3.1916065   0.44284556    -1.350099 -0.00015048207 
   38000   0.98702099    -3.577078   0.57829728   -1.6416269 -0.00022109583 
   39000    1.0131654   -3.4539006   0.29582054   -1.7649777 0.0005136605 
   40000   0.80863024   -3.9257071   0.68678451    -2.127056 9.4276747e-05 
   41000    1.0096113   -3.9695984   0.79128424   -1.7900986 -9.9308208e-05 
   42000    1.0585432   -3.6805911   0.39436685   -1.8307273 -0.00026631193 
   43000   0.91081305   -3.5645555   0.23995347   -2.0722341 0.00056894405 
   44000    1.2454011    -4.046183   0.47274785   -1.8610087 0.00047360951 
   45000    0.9394648   -3.9459615   0.40962524   -2.2445721 1.4255403e-05 
   46000    1.0724901   -3.7524495   0.30950881   -1.9682668 0.00020431627 
   47000   0.69925626   -4.3884526   0.46244966   -2.9645256 2.6153649e-05 
   48000   0.59063591   -4.0791396   0.91374846   -2.3532667 -0.00012581549 
   49000   0.71404256   -3.8241583   0.76726276    -2.075087 -0.00038235087 
   50000    1.0892045   -4.3669744   0.34089191   -2.5284263 0.00045409664 
   51000   0.80843546   -3.7326783   0.33100342   -2.2900761 0.00031125696 
   52000   0.60337983    -4.486079   0.44709861   -3.2093332 0.00016676599 
   53000    1.0320282   -3.7105436   0.18176224   -2.1097426 -1.406109e-05 
   54000   0.59605468   -3.5972679   0.44727826   -2.3304145 0.00043183199 
   55000    1.1172295   -3.1019096   0.69273517   -0.8729839 0.00066268063 
   56000    0.9190843   -4.2298547   0.39286348   -2.5732503 0.00013774701 
   57000    1.2920716   -3.8629574   0.51735831   -1.5690007 -9.4190797e-05 
   58000    1.1327317   -3.9766127   0.86222573   -1.5568809 -8.8011807e-05 
   59000   0.66362675    -3.517626   0.40234981   -2.2027894 0.00037538945 
   60000    1.6550167   -3.9170187   0.58718263   -1.0541882 0.00023553272 
   61000    1.1027952   -3.5332936   0.35452936   -1.6624208 0.00038994148 
   62000    1.4293995   -4.2398765   0.55359978   -1.7208524 -0.00010246286 
   63000    1.3762837   -3.8879802   0.58972873   -1.4058613 0.00018478711 
   64000   0.84311465   -3.7302449   0.35911792   -2.2118443 -9.8845395e-05 
   65000    1.3771401   -3.3495619   0.48508906  -0.97090522 -0.00019113757 
   66000    1.0835975   -4.0979664   0.69015415   -1.9178658 0.00023181545 
   67000    1.7962432   -3.7694619   0.26585598   -1.0337715 0.00012623846 
   68000    1.1475682   -3.8233298   0.42461113   -1.8208124 -0.00017756696 
   69000   0.99777572   -2.9395808   0.63603809  -0.93160107 -0.0001716148 
   70000     1.106609   -4.1664721   0.43398068   -2.2109041 -0.00014415847 
   71000   0.64576208   -4.0728632   0.36281858   -2.8221218 -0.00022840854 
   72000   0.88684841   -3.5206462   0.51592452   -1.7853051 -5.8937461e-05 
   73000   0.91758409   -3.6980962    1.1369463   -1.2994718 -0.00028388591 
   74000   0.93447017   -3.8761618   0.28150687   -2.3097584 -2.7692658e-05 
   75000   0.83650376   -3.8789942    0.5861283   -2.1426732 0.00032337668 
   76000   0.97091717   -3.1578449  0.085555855    -1.737278 3.8663091e-05 
   77000     1.567388   -3.9119978   0.63274087   -1.1240984 -0.00020805493 
   78000    1.2255688   -4.3194334   0.52751731    -2.106759 -0.00018771677 
   79000    1.1871393   -3.1595179   0.38026449   -1.1469368 -2.0142964e-05 
   80000    1.2460653   -3.9952628   0.40937008   -1.8725529 0.00018948253 
   81000   0.97633994    -3.907419   0.63355117   -1.9314004 -0.00032167325 
   82000    1.1875085   -4.3615277   0.72132667   -2.0073767 -0.00015891107 
   83000   0.43056791   -3.8853576   0.38101326   -2.9123135 -0.00026484665 
   84000    1.5281836   -4.1638341   0.69998549   -1.3625962 -6.4662102e-05 
   85000    1.1698566   -3.0732854   0.34164476   -1.1230878 -3.8478198e-05 
   86000     1.149288   -3.4398382   0.23609812   -1.6234691 -8.7775651e-05 
   87000   0.82001321   -3.9600841   0.47704386    -2.355522 -2.5490195e-06 
   88000   0.99536748   -2.9472679   0.51082708   -1.0678105 0.00037538769 
   89000    1.3614285   -4.2486349   0.61931395   -1.7573568 -0.00034200497 
   90000   0.75357056   -4.2680095   0.29981199    -2.932038 -1.6261426e-06 
   91000    1.4831389   -4.1136488   0.41507866   -1.6592541 0.00021187981 
   92000    1.2343202   -4.0082887   0.66458566   -1.6465127 -1.4669059e-06 
   93000    1.2588343   -3.8568872      0.60526     -1.52073 -8.4227494e-05 
   94000    1.3289094   -3.7236566    1.0523999   -0.8440062 -9.579901e-05 
   95000   0.75935095   -4.0533699    0.9357183   -2.0735441 -0.00021813168 
   96000   0.93540947   -3.8777428    0.3649496   -2.2266052 0.00031880979 
   97000   0.89878545   -3.8410711   0.86152944   -1.7437117 -0.00022444657 
   98000    1.4901215   -3.9807864   0.73190499   -1.1999643 0.0002165298 
   99000    0.7057549   -3.5936285   0.36774237   -2.2554731 6.838934e-05 
  100000    1.2931552   -3.6364718   0.66192395   -1.1964595 0.0002229402 
  101000    1.0282471   -3.6700083   0.33553329   -1.9206352 0.00016242707 
  102000    0.6543478   -4.0730591   0.57702577   -2.5963051 -0.0003028809 
  103000    0.9632354   -4.1737027    1.1509036   -1.6983504 -0.00048862797 
  104000    1.1667673    -4.467744    0.4648631   -2.3985759 -0.00016303466 
  105000   0.99258947   -2.8665562   0.97434891  -0.52739681 -0.00033744334 
  106000    1.0622931    -3.131552   0.22078389    -1.450115 0.00019303593 
  107000    1.1344301   -3.6974317   0.92162008   -1.2159702 -0.00021155005 
  108000    0.8918848   -3.9573766   0.42110963   -2.3099254 -1.3202144e-05 
  109000    1.2502785   -3.7640887   0.23771481    -1.807241 0.00054811749 
  110000    1.0302945   -4.3948607   0.20560868    -2.772597 0.00028415522 
  111000    1.0049511   -3.4307499   0.35794341   -1.6909987 -3.8885563e-05 
  112000   0.70807626   -4.0217194   0.51573432   -2.5323802 4.637066e-05 
  113000    1.0902603   -3.8521622   0.69374659   -1.6593077 0.00016704583 
  114000   0.58660939   -4.2268395   0.34172888   -3.0785227 -0.0001505765 
  115000     1.512821   -3.8806178   0.42725443   -1.3732345 0.00036536282 
  116000   0.54707138   -3.7843696    0.6645083   -2.3676381 0.00051922538 
  117000   0.76450125    -3.671757   0.58902755   -2.0315402 0.00034555004 
  118000   0.75914021    -4.289446   0.26266687   -2.9829613 -8.7865675e-06 
  119000   0.97559749   -4.3047959   0.59039126   -2.3729581 8.1820982e-05 
  120000   0.83676275   -2.7688053   0.70133719  -0.91691933 8.4322744e-05 
  121000    0.8055878   -4.1827374    0.5605756   -2.5144786 0.00022758597 
  122000   0.98362732   -3.0660318   0.83079775  -0.88274649 -0.00026217152 
  123000    1.0643142   -4.1233211   0.73399957   -1.9258895 2.7510432e-05 
  124000   0.89585675    -3.339191     0.777006    -1.330382 -9.7795051e-06 
  125000     1.532526   -3.6900934   0.45948712    -1.123383 -0.00020152126 
  126000   0.67623496   -3.7851211   0.50205002    -2.353248 -0.00023079816 
  127000    1.2569304   -4.1539857   0.56116979   -1.8645366 -0.000122518 
  128000    1.0571998   -2.9747415   0.57489438  -0.94619734 -0.00020996565 
  129000    1.1697943   -4.0319835   0.54046929    -1.883047 -4.2286335e-05 
  130000    1.2421516   -3.9820947    1.1894395   -1.0846967 -3.7226032e-05 
  131000    0.7577772   -3.3392208   0.73073071   -1.5665465 -0.00045901997 
  132000    1.0156702   -3.8417623    1.1201816   -1.3250342 -0.00061182649 
  133000     0.952034   -3.9566757   0.44637491   -2.2012541 -0.00015850427 
  134000     1.110581   -3.8636772   0.43282765   -1.9038008 0.00034733163 
  135000    1.3166804   -3.5655849   0.38036816   -1.3747811 -3.4203452e-05 
  136000    1.1010313   -4.1344356   0.53379435   -2.0867232 3.9608867e-05 
  137000    1.1771527   -4.0692999   0.55722323   -1.8934918 0.00015664784 
  138000    1.0195201   -3.4302296   0.78102874   -1.2473608 0.00094241877 
  139000    1.1194177   -4.0739842   0.35515163   -2.1796332 -1.6478983e-05 
  140000    1.1529343   -3.6676444   0.36143234   -1.7209274 -0.00014201033 
  141000    1.6027772   -2.9635898   0.52739377  -0.23237739 0.00051184497 
  142000   0.71771372    -3.666897   0.48235725   -2.1976833 -4.7597239e-05 
  143000   0.83560743    -4.100098   0.63437605   -2.3167618 -0.00010504332 
  144000    1.3570144   -4.0305588   0.53818395   -1.6264801 -2.0989207e-05 
  145000   0.56208475   -3.5017921   0.71423689   -2.0146886 0.00040886914 
  146000    1.2504626    -4.264462   0.20624136   -2.3388345 0.00026249806 
  147000    1.0203911   -3.9172042   0.19062025   -2.3235462 1.3210147e-05 
  148000   0.95039762   -3.7861917   0.15921075   -2.3201843 6.2621712e-05 
  149000   0.78053631    -3.858155   0.51045422   -2.2744634 0.00025382265 
  150000    1.0267049   -3.2616362   0.41069778   -1.4392191 0.00065141019 
  151000   0.50509145   -3.5571329   0.47607464   -2.3865575 0.00017795333 
  152000    1.0474733   -3.2300138   0.50473787   -1.2850002 -0.00022174093 
  153000   0.47069797   -3.4752431   0.74406409   -2.0839693 9.2551037e-06 
  154000   0.94674572    -3.894849   0.46301253   -2.1300611 2.7856475e-05 
  155000   0.78594715   -4.2143463   0.53140668   -2.6022623 4.7594361e-06 
  156000    1.0407815   -3.6085631   0.38314114   -1.7943474 0.00017011064 
  157000   0.72178292   -4.4443042   0.43188011   -3.0199725 -0.00041199996 
  158000    1.0620104    -3.996421   0.31677216   -2.2193846 -0.00021857629 
  159000     1.086831    -3.452754   0.74216443    -1.216197 -3.7396439e-05 
  160000    0.7136527   -3.7441115   0.50031953   -2.2625195 4.9900835e-06 
  161000    1.1906858   -3.8527525   0.54245187   -1.6731076 9.5632896e-05 
  162000    1.2891876   -4.1718392   0.30083867   -2.0983677 0.00034158165 
  163000    0.9990186   -3.6916923    0.2840375   -2.0340042 0.00019412905 
  164000    1.2122228    -4.164946   0.87622244   -1.6219172 -0.0003363989 
  165000   0.92699815   -3.9363453   0.47941138   -2.1823115 -0.00010867016 
  166000    1.1640055   -4.1190384   0.32686541   -2.1916655 0.00021256676 
  167000     1.014632   -2.8849873   0.25629843   -1.2335699 0.00023554222 
  168000    1.0125034   -3.9521055   0.20670046   -2.3532128 0.00033266437 
  169000    1.3618541   -3.8138346    0.5927349   -1.3485503 0.00012501186 
  170000    1.3479744   -2.9644705   0.22110176  -0.88990394 0.00020015506 
  171000   0.98941687   -4.2979332   0.40214284   -2.5353421 3.281412e-05 
  172000    1.0236072   -4.2660901   0.31058353   -2.5480466 -0.0002752066 
  173000   0.94680029    -3.614392   0.50978428   -1.8027573 4.8595063e-05 
  174000    1.0026265    -3.993914   0.43375107   -2.1815515 9.2263946e-05 
  175000    1.3931844   -4.0210445   0.65489614   -1.4505198 4.093066e-05 
  176000   0.72063923   -3.9966997   0.66064887   -2.3451719 -0.00019185944 
  177000   0.84370388   -3.7907006   0.24219849   -2.3884093 0.00021437167 
  178000      1.02504   -3.5276309   0.98247088     -1.13573 8.8557528e-05 
  179000   0.73311007   -3.7095217   0.42523543   -2.2762599 -0.00013049351 
  180000    1.0770077   -3.8279193   0.66222113   -1.6848126 -9.5851913e-05 
  181000    1.2234259   -4.0824545   0.46233464   -1.9379092 0.00024150737 
  182000   0.72635112   -4.1410213   0.53138339   -2.6109051 -0.00030628736 
  183000    1.1823932   -3.7320889   0.25701226   -1.8492861 0.00021073238 
  184000   0.98199933   -3.8282634   0.85930689   -1.6187075 -0.00038305918 
  185000    1.4610274   -3.8698547   0.42472175   -1.4362203 0.00030110414 
  186000   0.94817768   -4.0008945   0.58732573   -2.1098245 3.4691807e-05 
  187000    1.1600409   -3.4798255   0.99388838  -0.89088088 -0.00037739636 
  188000    1.2544946   -4.4192181   0.42219617   -2.2720918 3.2102933e-05 
  189000   0.86234061   -4.0600195   0.63495487   -2.2393463 -7.7152489e-05 
  190000   0.91260517    -3.970984   0.42602943   -2.2901224 0.00011808866 
  191000    1.0045884   -3.7558237   0.50289183   -1.8716227 -2.8694735e-05 
  192000   0.89420505   -4.0321112   0.26708316   -2.5354961 0.00016713451 
  193000    1.0515131   -3.3699011   0.34130081   -1.5827698 8.8875188e-05 
  194000    1.3598832   -3.5467589   0.29939505   -1.3775245 -0.00014213871 
  195000   0.73303205   -3.2114511   0.28947977   -1.9140523 0.00015842949 
  196000   0.71907426   -3.9674143   0.46994976   -2.5087375 -0.00023104192 
  197000    1.0887162   -3.9496678   0.59224169   -1.8604414 0.00032644965 
  198000    1.0009253   -4.2766633   0.59254957   -2.3078415 -0.00020331034 
  199000   0.88962442   -3.8707625   0.62411709   -2.0234118 -0.00037317878 
  200000   0.81103915   -4.1895685   0.60678589   -2.4676038 1.9065658e-05 
  201000     1.228002   -3.5595012   0.32438805   -1.5466105 9.8462203e-05 
  202000   0.83283145   -3.8126349   0.59877509   -2.0687166 0.00046457946 
  203000   0.90303853   -3.2099075   0.51688013   -1.4513494 -3.0975266e-05 
  204000    1.1233713   -4.2446523   0.69124072   -2.0087761 -0.00057184789 
  205000    1.2407556   -4.1831539   0.47118278   -2.0059323 -0.0002361888 
  206000    1.1988585   -4.0515756   0.41330953   -1.9898356 0.00011434289 
  207000   0.83177557   -4.0230366   0.39342096   -2.4859242 0.00029998606 
  208000    1.2767965   -3.0209304    1.0420593  -0.22327595 -0.00040701489 
  209000   0.91788681   -3.3309252   0.40229913   -1.6665317 -0.00026007706 
  210000    1.0578354   -3.6909953   0.19674256   -2.0397291 0.00042554438 
  211000   0.70746559   -4.2563263   0.49098673   -2.7925744 0.0001845792 
  212000    1.3426613   -4.2775564    1.0522482   -1.3791489 2.7363218e-08 
  213000    1.1440873   -4.2089174   0.54423825   -2.0915591 -0.0001553377 
  214000    1.0188316   -3.8311207    0.5525536   -1.8776736 -6.4944505e-05 
  215000     1.239086   -3.2986637   0.57626472   -1.0186558 -0.00016389877 
  216000   0.94197242   -3.7105058   0.17007663   -2.2452171 -8.6520999e-05 
  217000    1.1458771   -3.8496901   0.54123767   -1.7328714 0.0003969522 
  218000   0.73319567   -3.5935229    0.4537939   -2.1315849 -0.00020154949 
  219000   0.83981664   -4.0879174   0.45566049   -2.4775091 9.0429618e-05 
  220000   0.95648851   -3.8632317   0.43812473   -2.1099352 -0.00010220594 
  221000    1.1590659   -4.1458893   0.26181649   -2.2903572 7.5966388e-05 
  222000   0.88060201   -4.0485427   0.56677435   -2.2709406 -0.00014895638 
  223000    1.2773899   -3.2184403   0.72642387  -0.73560542 0.00017399093 
  224000    1.3840705   -3.8095529   0.51850414   -1.3879518 -5.9799394e-05 
  225000    1.2746404   -3.9497892   0.68485837   -1.5123003 3.0687072e-06 
  226000    1.3322538   -3.7994976   0.38803893   -1.5796098 -0.00038314465 
  227000    1.0707743    -4.505638   0.40716455   -2.6261587 -4.1239203e-05 
  228000    1.1636732   -4.4351553     0.920455   -1.9146497 -4.490605e-05 
  229000   0.83094543   -4.3126949    0.3406885   -2.8294565 0.00030961114 
  230000   0.62648851   -3.7702753   0.56602266    -2.342831 0.00032967429 
  231000    1.2780848   -4.2726436    1.1265733   -1.3887038 -0.0002883678 
  232000   0.73134119   -4.1645775   0.75458332      -2.4044 -0.0002413545 
  233000   0.48129438      -3.8361   0.69555318   -2.4787671 -2.1081461e-05 
  234000   0.79624976   -3.7168708   0.28550875   -2.3365186 -0.00032595886 
  235000    1.6609687   -3.7074694   0.54880338  -0.87483405 -0.00018367365 
  236000   0.49767136   -4.1771277   0.31898451   -3.1738451 -2.2937756e-05 
  237000    1.1266207   -4.1202037   0.30323457   -2.2678656 -0.00024984834 
  238000    1.1856416   -4.1095381   0.53562911   -1.9436518 4.3164854e-05 
  239000    1.0251505   -3.9161661   0.23854233   -2.2680418 0.00044114843 
  240000   0.99214076   -4.2107805   0.44449093   -2.4020961 -0.0002162034 
  241000   0.99608257   -3.5759358   0.22309039   -1.9832318 0.00025571585 
  242000   0.80439566   -4.0684592   0.37530921   -2.5871059 -0.00014856465 
  243000    1.0759579   -4.0883917   0.37399236   -2.2349572 -0.00019626131 
  244000   0.77037689   -3.7253246   0.42816443   -2.2378919 4.4357823e-05 
  245000   0.77046914   -4.2233264   0.58169651   -2.5822348 -0.00015889227 
  246000   0.78988151   -3.5176928   0.29143742   -2.1401683 0.00021892842 
  247000    1.4836676    -3.933703   0.60552916   -1.2881308 0.00013458278 
  248000    1.1505631    -3.255848   0.25376408   -1.4200597 1.407086e-05 
  249000    1.4514298   -4.1651626    1.1572286    -1.012218 -0.00034871232 
  250000   0.60835521   -3.7833643   0.91895011   -2.0279257 0.00038949792 
  251000   0.60333527   -3.4369052   0.49804821    -2.109271 9.3128491e-05 
  252000   0.74390723   -3.9414648   0.37626595   -2.5423264 0.00040629698 
  253000    1.1955293   -3.8052815   0.52230887   -1.6391199 0.00014851029 
  254000    1.3813993   -3.7980741   0.25113579   -1.6475142 0.00019605381 
  255000   0.91072266    -4.206237   0.30030713   -2.6536863 -0.00032670252 
  256000    1.0877684   -3.6812355   0.18389034   -2.0016637 0.00074215038 
  257000    1.1193769    -4.148905   0.48434603   -2.1254157 0.0001066446 
  258000    1.3423965   -3.8360159    0.7030312   -1.2871895 -0.00038859121 
  259000   0.85814975   -3.7269267   0.52058173   -2.0263891 -7.2817057e-05 
  260000    1.1253953   -4.0859632   0.16243391   -2.3761108 4.5989658e-05 
  261000    1.5858106   -3.2247091   0.41603149  -0.62818805 0.00034227292 
  262000   0.75243969   -3.8861962   0.28906562    -2.562526 -1.4197966e-05 
  263000    1.2126393   -3.8018485   0.87510677   -1.2593626 -0.00019697098 
  264000    1.0822543   -4.1457603   0.11815531   -2.5395053 0.00024331458 
  265000   0.98728041     -3.46707   0.56198778   -1.5475717 -0.00016854909 
  266000    0.7061287   -4.1315489   0.90029432   -2.2603276 -0.00014982945 
  267000    1.3497569   -4.1359454   0.33356982   -1.9464599 0.00013317732 
  268000    1.3257564   -3.8379521    0.4664999   -1.5485371 0.00030868566 
  269000    1.1389755   -3.9207729   0.46473315   -1.8899484 -0.00032014813 
  270000    1.2973763   -3.8552259   0.49739212   -1.5739414 2.0340004e-05 
  271000    1.1230296   -3.9877765   0.38204758   -2.0615632 2.5788949e-05 
  272000   0.72311382    -2.912292   0.33971178   -1.5782987 7.8828075e-05 
  273000   0.98678838    -3.309875   0.33258941   -1.6204515 0.00035085242 
  274000    1.4301377    -3.269668   0.46503627  -0.83819238 0.00020277612 
  275000   0.64919076   -4.0374923   0.31458597   -2.8302691 -0.00011731937 
  276000   0.81331545   -3.5166017   0.50056148   -1.8977315 0.00013621922 
  277000   0.47831355    -4.104884   0.84155269   -2.6056502 0.00040756888 
  278000   0.87510154    -3.709493   0.79441903   -1.7118094 -9.6629376e-05 
  279000   0.87936567   -3.7164547   0.55965784   -1.9476691 0.00073075522 
  280000    1.1796216   -4.3609635    0.4094852   -2.3294986 0.00018204644 
  281000    1.0644967   -3.3086908   0.76984239   -1.0751655 0.00049753221 
  282000   0.89679153   -4.1890019   0.52140132   -2.4345123 0.00011516338 
  283000     1.068679   -4.1570111   0.63019133   -2.0573861 -6.9887193e-05 
  284000   0.43943039   -3.5942859   0.69684758   -2.2932215 -0.00013906248 
  285000    1.3953258    -3.280225   0.42666312  -0.93498898 -0.00015463817 
  286000   0.82736004     -3.86221   0.73780334   -1.9867866 -0.00033825997 
  287000    1.0281205   -4.0276847   0.58940519   -2.0246138 -0.00011588878 
  288000   0.98756265   -3.9200013    0.5207727   -2.0413299 -0.00016452527 
  289000   0.66735827   -3.1747063    0.5208714   -1.7362172 -0.00046878317 
  290000   0.74018165   -4.1820517   0.17432971   -2.9899722 -6.3259974e-05 
  291000    1.4382685   -3.9037539   0.53371706   -1.3924176 -0.00017908899 
  292000    1.0476807   -3.4951441   0.55694321   -1.4976399 0.00012824129 
  293000    1.1077881   -4.0637423   0.42024069   -2.1202929 0.00016969154 
  294000     1.177077   -4.0212566   0.76472432   -1.6380514 -0.00020220622 
  295000    1.0518144   -4.0199979   0.37105969   -2.2026934 1.048289e-05 
  296000    1.3125743   -4.0879708   0.43453884   -1.8486423 0.00034425849 
  297000   0.58122092   -4.2633152   0.53622267   -2.9279137 -9.4422733e-05 
  298000   0.81467544   -4.2025102    1.2607191   -1.8216124 1.8011722e-05 
  299000    1.0358822   -4.1383861   0.48268811     -2.23136 -9.2622514e-05 
  300000   0.94873962   -3.8926221   0.38297117   -2.2051339 -0.0003404435 
  301000    1.1117001   -3.8892693   0.36832484   -1.9923568 0.00032005105 
  302000   0.74161954   -4.2649138   0.40727856   -2.8379084 -0.00018587384 
  303000   0.90740653    -3.521659   0.48893016   -1.7850449 -0.00045847474 
  304000    1.1042171     -4.21306   0.22353116   -2.4712304 3.323394e-05 
  305000   0.78615595   -3.4227145   0.64083425   -1.7009159 0.00028494445 
  306000   0.98897465   -3.9892521   0.18413699   -2.4452749 0.00011490902 
  307000   0.67799891   -3.6850352   0.24861189   -2.5041748 -0.00016144351 
  308000    1.6089122   -3.7967313   0.82531652  -0.75916054 -0.0001859703 
  309000    1.3112585   -3.4987269   0.27137185   -1.4243747 0.00085674414 
  310000    1.2764179   -3.8210591   0.40128915   -1.6646954 0.00026657734 
  311000   0.67305967   -4.1706716   0.41393416   -2.8312804 0.00010360533 
  312000   0.92297552   -3.1231755   0.67219385   -1.1818903 0.00011945843 
  313000   0.66259637   -4.1764261   0.65739657   -2.6079595 0.0002638438 
  314000    1.5059406    -4.256417   0.62666997   -1.5590787 6.6029703e-05 
  315000    1.2940837   -4.0344769   0.52889412   -1.7262176 -0.00013245385 
  316000    1.1154507   -4.1170777   0.53781342   -2.0455196 0.00013672028 
  317000   0.96120464   -3.5696111   0.50146169    -1.746493 0.00078822953 
  318000   0.91517996   -3.5560036   0.29430946   -2.0033217 0.00029314255 
  319000    1.1307477   -4.0856367  0.081075752   -2.4497829 -9.8434499e-05 
  320000    0.9095491   -3.9936194   0.38648433   -2.3565051 0.00035087065 
  321000    1.0141651   -4.3056342    1.1071999   -1.8039572 -9.6997083e-05 
  322000    0.6810792    -4.306983   0.95508417   -2.4154149 0.00014494476 
  323000    1.1562929   -3.7098913    0.1868232   -1.9331655 0.00017736303 
  324000   0.86212484   -3.4084404   0.67345463   -1.5495642 0.00027665899 
  325000   0.83590416   -3.7490175    0.4820239   -2.1176253 4.2120896e-06 
  326000   0.59043824   -4.2249756   0.49275368   -2.9203693 8.1085006e-05 
  327000   0.91546007   -4.0516309   0.35912065   -2.4337527 -0.00022288546 
  328000   0.74159941   -3.8706806   0.44723663   -2.4037448 -8.9745521e-05 
  329000     1.161588   -3.8449501   0.44619197   -1.8015745 0.00039714428 
  330000   0.96826959   -4.1204443   0.70906627   -2.0800073 0.00015065727 
  331000    1.3620411   -3.1599644   0.43414461  -0.85301334 9.0524996e-05 
  332000   0.91407908   -4.2243619   0.70220289   -2.2653003 0.00019184642 
  333000   0.77976672   -3.3556681   0.26401548   -2.0194734 0.00020377549 
  334000   0.89944082   -4.0777919   0.91582288   -1.9252379 -1.1707961e-05 
  335000   0.74441351   -4.3853352    1.1818241   -2.1799425 -0.00021266362 
  336000   0.92902621   -4.3356457   0.37763551   -2.6805991 -0.0002451373 
  337000    1.0908824   -3.5295925   0.66830126   -1.3613279 -0.00031160768 
  338000   0.80832551   -3.9696818   0.44630074   -2.4119335 0.00015819162 
  339000     0.871235   -4.0502162   0.43580761   -2.4164605 0.00023517893 
  340000   0.85812452   -3.6140381   0.27701835   -2.1570985 0.00047949495 
  341000   0.75205404   -4.0832279   0.25442271   -2.7947309 1.5805399e-05 
  342000    0.8178177   -3.6824089   0.39815788   -2.1597517 -6.1140775e-05 
  343000   0.94143205   -4.2363071   0.75391718   -2.1879208 -0.00029212327 
  344000    1.1946123   -3.3602385   0.40913765   -1.3085089 0.00031171487 
  345000   0.74963699    -4.144895   0.90753589   -2.2066082 4.3181682e-05 
  346000    1.0686661   -3.5196138   0.34306943   -1.7071285 9.3367031e-05 
  347000    1.1398434   -3.5942976    0.5932426   -1.4337704 0.00014858434 
  348000    0.9122734   -4.0511319   0.59299167   -2.2037643 -0.00031400406 
  349000    1.1320174   -4.0086321   0.24986028    -2.202248 8.7280604e-05 
  350000    1.1009081   -3.4867645   0.34303882   -1.6299771 -0.00011089542 
  351000   0.92007593   -4.0740795    0.4128325   -2.3961426 -3.3482409e-06 
  352000   0.76429201    -4.095694   0.47906822   -2.5657242 -0.00033596981 
  353000    1.2913565   -3.6037759   0.26770349   -1.5604573 -2.4373547e-05 
  354000   0.82386228   -3.9397876    1.2195016   -1.5874753 -7.669227e-05 
  355000     1.399762    -4.117742   0.74488428    -1.448185 0.00018429132 
  356000   0.76395925   -4.1618158   0.54866781    -2.562704 -0.00024176127 
  357000    1.1228017    -2.889835   0.53727234  -0.80871029 -0.00014971431 
  358000    0.8061237   -4.4392884    1.2986331   -2.0322352 -0.00020686603 
  359000    1.2495864   -4.0065534   0.72348164   -1.5648904 0.00035186209 
  360000   0.89978286   -3.4718736   0.38756102   -1.8471111 9.1993838e-05 
  361000   0.68987443   -3.7606272   0.12895219   -2.6830977 -0.00017978058 
  362000    1.1693968   -4.1574848   0.51160634   -2.0379579 0.00017449597 
  363000    1.0135773   -3.8706438   0.60348742   -1.8734877 -0.00026450539 
  364000   0.81959427   -4.1731417   0.64775395   -2.3984456 -0.00034654733 
  365000    1.0905174   -3.1021502   0.54319816   -1.0594906 -0.00029955238 
  366000    1.0780144   -3.6978712   0.79428658   -1.4213148 6.8725642e-05 
  367000   0.41371103   -3.7816503   0.88734276   -2.3254548 -0.00015598499 
  368000    1.2048228   -3.8020569   0.26233875   -1.8830868 -3.2425061e-05 
  369000    1.3086315   -3.8556644   0.28277903    -1.773517 -2.0479058e-05 
  370000   0.88833509   -3.9415329   0.37263989   -2.3474323 8.2845335e-05 
  371000    1.3397716   -3.1822945   0.63536254  -0.70474604 0.0005649147 
  372000   0.71049263    -3.704532   0.77602792   -1.9515767 -2.4359809e-05 
  373000   0.78613704   -3.8714153    0.4444958   -2.3459811 -0.00035691863 
  374000   0.88776237   -2.5514434   0.79890334  -0.53186681 0.00016553733 
  375000   0.82542333   -3.6781649   0.54749424   -1.9957136 -0.00025903806 
  376000    1.2546608   -4.3656244   0.49250913   -2.1479566 0.0003080795 
  377000   0.92981984   -3.5843438   0.38275027   -1.9230913 0.00019159229 
  378000   0.58548765   -3.3189365   0.18118547   -2.3327055 -0.00012064159 
  379000   0.95540736    -3.845219    0.8305912   -1.7009427 0.00032226976 
  380000   0.87636667   -3.6743424   0.32426319    -2.145075 -0.000163852 
  381000   0.96532625   -3.7293561   0.44373232   -1.9583002 0.00020599032 
  382000    1.0368259    -3.820875   0.33602427   -2.0592152 -0.0001477509 
  383000    1.0354442   -3.7411903   0.15886983   -2.1585846 -0.00012233641 
  384000     1.219365   -4.0669691   0.46257483   -1.9277674 0.00010922228 
  385000    1.0434905   -3.0226695   0.30430575   -1.2835644 -5.1350207e-05 
  386000   0.82540638   -3.9923567   0.45534914   -2.4020738 -1.1387818e-05 
  387000   0.92708276   -3.5345152   0.54446929   -1.7153071 0.00013803953 
  388000   0.44244217    -4.056749   0.31311801    -3.135273 0.00032039689 
  389000    1.4345287   -3.3454361   0.38959367  -0.98336544 -0.00020943846 
  390000    0.8731953   -4.0407903   0.28212227   -2.5580245 0.00050271762 
  391000   0.89748948   -3.8442799   0.80315338   -1.8070785 0.00041996773 
  392000   0.92251388   -3.7467138   0.73342585   -1.7448314 1.2815677e-05 
  393000    1.0101903   -3.3938695    0.3355356   -1.6693223 -0.00038551975 
  394000    0.9893823   -3.9126402     0.275782   -2.2764576 0.00027691495 
  395000    1.2061552   -3.9029892   0.54018367   -1.7043421 0.00027249127 
  396000   0.98438422   -4.4602362   0.45038625   -2.6563216 -0.00017113285 
  397000   0.79552739   -3.9628534   0.86194818   -2.0070551 -0.00021731401 
  398000   0.94450448   -4.1833092   0.40199022   -2.4826253 -0.00010996842 
  399000   0.77760191   -3.8022236   0.49119549   -2.2418255 -4.045425e-05 
  400000    1.0238142   -4.1700392   0.59251366    -2.169781 0.00024530803 
  401000    1.4159124   -3.7131373     0.459086   -1.3071718 -0.00023178407 
  402000   0.78562693   -3.8399159   0.41416595   -2.3455129 0.0004724322 
  403000   0.76990399   -3.7823776    0.6153618   -2.1083978 5.3049357e-05 
  404000    1.0338007   -3.4169315   0.43900554   -1.5564499 0.00045583305 
  405000    1.1013629   -3.7233581   0.41516075   -1.7938235 0.00047888089 
  406000   0.88422005   -3.3033078   0.12610569   -1.9613995 0.00019547261 
  407000   0.95738453   -3.8847655    0.6927371   -1.8756247 0.00012067329 
  408000   0.71723219    -3.856548   0.54886898   -2.3214847 -0.00043841869 
  409000   0.86596726   -3.9010511   0.28787087   -2.4224752 0.00014468759 
  410000   0.72839105   -3.5039145   0.54556325   -1.9568135 -9.7487299e-05 
  411000   0.51528251      -3.6042   0.37869691   -2.5169896 0.0001447449 
  412000    0.3578125   -3.9325514   0.81924675   -2.6213124 2.0848343e-05 
  413000   0.71831124    -3.771186   0.38049112   -2.4030169 7.5415314e-05 
  414000   0.57905944   -3.5330928   0.70826428   -2.0286218 -0.00018130539 
  415000    1.2282558   -3.2495018   0.57686351  -0.98378649 0.00019220579 
  416000    1.0124106   -3.9494105   0.32529582   -2.2320502 -0.00014132627 
  417000    1.1855106   -4.1279696   0.39324348   -2.1046491 6.3811838e-05 
  418000   0.90968564   -3.0064235   0.74610138   -1.0095044 0.00024595727 
  419000   0.92788843   -4.1028871   0.66712535   -2.1599151 -0.00029492501 
  420000   0.79811048   -3.7752899   0.47078991   -2.2070981 4.5707398e-05 
  421000   0.83245149   -3.8770312   0.63195623   -2.1004542 -5.0193193e-05 
  422000   0.97456758   -3.4503057   0.59787838   -1.5123969 -9.3095166e-05 
  423000   0.86780487   -2.9549897   0.72661982   -1.0351382 -0.00028816863 
  424000   0.91675996   -3.9907038   0.54903222   -2.1811266 0.00021567439 
  425000     1.155209   -3.8096176    0.3027019   -1.9185033 0.00010159458 
  426000     1.075506   -4.1143133   0.49171598   -2.1437766 -0.00010151421 
  427000    1.4187835   -4.1040987   0.67873449   -1.4745369 1.9397428e-05 
  428000   0.97839849   -3.6226671   0.23190443   -2.0454647 0.00017401615 
  429000   0.62090658   -3.9557474   0.13988916   -2.9621116 0.00070151194 
  430000    1.3794957   -4.1123986    0.4533661   -1.7622259 4.0274601e-05 
  431000    1.1260401   -4.3175129   0.58804692   -2.1811609 -0.00030945971 
  432000   0.86614028   -4.0397472   0.35291729    -2.495887 0.00022682654 
  433000   0.98379874   -4.2771117   0.88818707   -2.0362014 0.00010737195 
  434000     1.085009   -3.6698298   0.61240167   -1.5655407 0.00058941244 
  435000   0.84407975   -4.0112205   0.26964231   -2.5809685 5.4948573e-05 
  436000   0.99662211   -3.3077209    0.6337989   -1.3035666 0.00027788143 
  437000    1.3360442   -4.0694031   0.21274378   -2.0195985 -7.6910499e-05 
  438000   0.96590437   -3.2130969   0.17060243   -1.7143759 9.8663844e-05 
  439000   0.98562237   -3.9471857    0.6169908   -1.9749642 -0.00036090341 
  440000    1.1670897   -3.9869531    1.2282292   -1.1539757 -0.00024909309 
  441000   0.93620335   -3.8319942   0.47667251   -2.0680421 4.731915e-06 
  442000    1.1563255   -3.7533244   0.43764212   -1.7257347 -7.5818756e-05 
  443000    1.1237128   -4.1105412   0.51022063   -2.0552154 -5.7536941e-05 
  444000     1.196658   -3.6535271   0.82236653   -1.1857559 7.8004008e-05 
  445000    1.1585141   -4.0025391   0.40209085   -2.0074914 -0.00024181886 
  446000    1.0020801   -3.9327475   0.47597845    -2.078909 -0.00016121779 
  447000   0.93405787   -4.1133528   0.41824091   -2.4107823 -0.00032110544 
  448000   0.75052985   -3.6688122    0.7635637   -1.8732699 -0.00017665508 
  449000    1.3246857   -3.9247813   0.46954043   -1.6337981 -2.3896075e-05 
  450000    1.2689734   -3.9840414   0.93456298     -1.30464 -0.00055051206 
  451000   0.88106246   -3.0769752   0.88916401  -0.97635034 -0.00013147459 
  452000    1.0963432    -4.119043   0.30128717   -2.3102839 0.00014068734 
  453000   0.89795175   -3.6638373   0.46995473    -1.959199 -0.00015813564 
  454000   0.66762583   -4.2593378   0.53168928    -2.809663 0.00021804095 
  455000    1.4846503     -4.17226   0.63230277    -1.498563 -0.00014933375 
  456000    1.9634818   -4.1738581   0.32710039   -1.1469703 -0.00012421291 
  457000   0.61388156   -3.6680514   0.57467502   -2.2492893 0.00019484152 
  458000    1.2348612   -3.8952037   0.39701137   -1.8002582 -0.00019299897 
  459000   0.59989138   -3.5321327   0.49217715   -2.2151049 1.9361958e-05 
  460000    1.0838867   -4.1534183    1.0283141     -1.63476 -0.00034377668 
  461000   0.84995003   -4.2458582   0.68185251   -2.3953244 -0.00045002623 
  462000    1.0955732   -3.5035545   0.39401306   -1.6031282 5.0119154e-05 
  463000    1.0359618   -3.7369848   0.53706771   -1.7754696 -5.6326062e-05 
  464000   0.73123933   -3.7191209   0.26928603   -2.4443808 -0.00020839733 
  465000   0.81967476   -3.7286792   0.69139246   -1.9102339 -0.00056526854 
  466000   0.87380215   -3.4882817   0.31786086   -1.9689429  3.63521e-05 
  467000     1.054681   -4.3591178   0.52495385   -2.3839777 -0.00033491449 
  468000    1.1968274   -3.8592796   0.41359071   -1.8000513 0.00058487285 
  469000   0.98836591   -3.9920133   0.35016958   -2.2828406 0.00011786668 
  470000   0.73747705    -4.049637   0.48346144   -2.5521446 0.00034601811 
  471000   0.93063924   -3.7430347   0.52264766   -1.9407581 -0.00048634479 
  472000   0.67677731    -3.483948   0.22202108   -2.3313582 -0.00011556786 
  473000   0.72436525   -3.4181136   0.99292567   -1.4291857 -0.00054240489 
  474000     1.141278   -3.9016912   0.30572751   -2.0267065 0.00045221229 
  475000    1.0625052   -3.8118739   0.19830449   -2.1526248 0.00048799438 
  476000    1.6003099    -4.151383   0.39342802   -1.5575288 0.00028854576 
  477000   0.47755493   -4.0541915   0.27425847    -3.123295 0.00055256967 
  478000    1.1486573   -4.0919363    1.0708053   -1.4417272 -0.00052098564 
  479000   0.70950997   -3.7592711   0.42623771   -2.3574571 -0.00040391398 
  480000   0.61492341   -3.8376058   0.45543167   -2.5366544 5.9887853e-05 
  481000   0.83486585   -4.0573949   0.29581411   -2.6136403 7.0472833e-05 
  482000    1.2539339   -4.1161648   0.64034983   -1.7516559 -8.9656311e-05 
  483000   0.55297033   -4.0358182    0.2465631   -3.0289209 7.4153097e-05 
  484000     1.483008   -4.1044234   0.39867386   -1.6666135 -5.4483726e-05 
  485000    1.2826049   -4.0701059   0.58817183   -1.7183523 -3.6746333e-05 
  486000    1.3086403   -3.9746564   0.26534078   -1.9099352 -0.00025438408 
  487000    1.1762654   -3.8829169   0.23519707   -2.0303548 0.00035163966 
  488000   0.66847459    -4.011185   0.47735849    -2.614674 -7.1082179e-05 
  489000   0.81006745   -3.6530931   0.36333456   -2.1759157 3.2139638e-05 
  490000   0.99432441   -3.9842129   0.30206306   -2.3149538 0.00074659774 
  491000     1.168954   -3.8846013   0.18916011   -2.0881294 0.00025832753 
  492000    1.1568388   -3.9930849   0.75100258    -1.651429 -0.00020705653 
  493000    1.1127606    -4.450463   0.59005787   -2.3303593 -0.00018853377 
  494000    1.3005341   -3.8093113   0.37669593    -1.644381 0.00020246026 
  495000   0.90571951    -4.069324   0.56755395   -2.2564058 -0.00018678025 
  496000   0.88940558   -4.3428738   0.47541038   -2.6445308 0.00014079616 
  497000    1.3274432   -4.1262794    0.4177855   -1.8832595 0.00028390175 
  498000   0.80544693   -4.1934974   0.43403402   -2.6519739 0.00012632048 
  499000    1.0968804   -4.2883555   0.76219113   -2.0179538 -0.00042055525 
  500000   0.99302218   -3.9223967   0.46059353   -2.0963976 -0.00014404755 
  501000   0.98358895   -4.3091909   0.66978964   -2.2869665 -0.0002299464 
  502000    0.9304301   -4.1503478   0.26451043    -2.606496 0.00048894521 
  503000    0.9424642   -3.3943221   0.34754979    -1.750884 0.00043678419 
  504000   0.88594007   -4.0980961   0.59077531   -2.2891532 3.3924165e-05 
  505000    1.0176329   -3.9488136   0.75186474   -1.7977035 -0.00047261057 
  506000    1.1941845   -3.7719382   0.52678947   -1.6031451 -2.7876739e-05 
  507000    1.3300041   -3.6246194   0.56974013   -1.2261236 -0.00032569204 
  508000   0.56651485   -3.6586017     0.392112   -2.4875318 7.2545263e-05 
  509000    1.1119674   -3.8000806   0.32278804   -1.9483373 -8.3473429e-06 
  510000    1.2302908   -3.8444912   0.33706746   -1.8157738 -0.00040841698 
  511000   0.80345743   -3.8677347   0.51441254   -2.2485682 -0.00029881389 
  512000    1.5541194   -3.7844272   0.55087439   -1.0966387 -0.00013269486 
  513000   0.74250057   -3.7602884   0.35507447   -2.3842756 0.00024549431 
  514000    1.1090409   -3.8520769   0.71741886   -1.6097268 -0.00011094855 
  515000    1.2937342   -3.8532297   0.39650914   -1.6778361 0.00044615302 
  516000   0.61052913   -4.0261036   0.29601224   -2.8906138 -2.2131224e-05 
  517000   0.83553242   -3.9733917   0.94715141   -1.8773832 2.9729745e-05 
  518000   0.89964404    -4.057231   0.41549775   -2.4047227 4.7922796e-05 
  519000   0.79095111   -3.9007541   0.62141831   -2.1917781 0.00027562162 
  520000    1.6584174   -3.6678146   0.66832752  -0.71916311 7.3824282e-05 
  521000   0.86219156   -3.0388365   0.56067617    -1.292647 -7.2814726e-05 
  522000    0.9321332   -2.6822365   0.36845173   -1.0321016 0.00018473211 
  523000   0.78389936   -3.0054636   0.38984701    -1.537755 0.00010961916 
  524000   0.96709184    -3.942472    0.6368392   -1.9758815 -5.185025e-05 
  525000   0.78410164   -2.4966272   0.96920627  -0.44928122 -0.00031380416 
  526000    1.2461522    -3.422061   0.67468211   -1.0339197  3.77294e-05 
  527000    1.2266103   -3.0551453   0.36528433   -1.0032719 9.6687156e-05 
  528000    1.1225929   -3.6385009   0.21836322   -1.8765724 -4.1931605e-05 
  529000    1.0399395   -3.8763992   0.78385737   -1.6626251 -9.3279057e-05 
  530000    1.0681386   -3.7133872   0.34606023   -1.8986364 -0.0003474565 
  531000    1.0157427   -3.8467015   0.24412136   -2.2059339 -0.00016876157 
  532000   0.76642583   -3.4633433    0.6323484   -1.7771594 -0.0002217627 
  533000    0.8291921   -3.5974751   0.73014697    -1.727189 -0.0001349951 
  534000    1.3246426   -3.9580377   0.16581552   -1.9708386 0.00028872101 
  535000    1.6246465   -3.4312019   0.34586126  -0.85145169 0.00044135899 
  536000   0.70361566   -4.0727217   0.47015993   -2.6350903 5.7433018e-05 
  537000   0.95839863   -3.4216004   0.29459858   -1.8092037 -7.1034599e-05 
  538000    1.0342317   -4.2571028   0.22070326    -2.614331 -9.2515226e-05 
  539000    1.1343106   -3.8193429   0.51216692   -1.7474989 -1.9191182e-05 
  540000   0.96020012   -3.8561545   0.11869823   -2.4171812 2.4833905e-05 
  541000    0.9468519   -3.1601198   0.55323697   -1.3049615 0.00053891623 
  542000   0.94258232   -3.8795963   0.44826128   -2.1352843 -2.6473495e-05 
  543000    1.0059455   -4.2841008   0.53721091   -2.3637148 -0.00033891691 
  544000    1.3994945   -3.8190932   0.41806478   -1.4767235 0.00041140921 
  545000    1.5546133   -3.8750552     0.402569   -1.3348929 -1.5146345e-06 
  546000   0.66985752   -3.7952551   0.57475033   -2.2994507 -0.00022308371 
  547000   0.91826522   -3.8431677    0.4397082   -2.1408448 -0.00013584899 
  548000    1.1088448   -3.8590022   0.55602471   -1.7783158 0.00013505999 
  549000    1.2237847   -4.2410475   0.52294744    -2.035396 0.00019760457 
  550000   0.62799563   -3.7745504    1.1141221   -1.7969343 -0.00046721984 
  551000   0.67672078   -3.5694665   0.25750764   -2.3814677 0.00091473922 
  552000    1.0917675   -3.8719459    0.6691121   -1.7016535 3.8488161e-05 
  553000   0.75146403   -4.2321987   0.67907501   -2.5198607 0.00026360847 
  554000   0.74252838   -3.9684243   0.37574678    -2.571701 -0.00015065155 
  555000    1.2177872   -3.6931444   0.79116672   -1.2275203 0.0001427925 
  556000   0.99829827   -4.2777412   0.30668641   -2.5983947 -0.00029472432 
  557000   0.86384891   -3.9662953   0.68563108    -2.092872 -0.0002135248 
  558000   0.90754867   -3.5181227   0.49162106   -1.7786222 0.00021118715 
  559000    1.0474358   -4.2471939   0.42788924   -2.3790804 -0.00033500749 
  560000   0.72851038    -3.617762   0.60731852   -2.0087417 -0.0003413234 
  561000   0.95301608   -3.6086013   0.52302677   -1.7751774 -0.00047249279 
  562000    1.0112881   -3.7713464   0.79391031   -1.5869149 -0.00029885958 
  563000   0.90393532   -3.8956779   0.44588312   -2.2068837 -7.7300415e-06 
  564000    1.1153119    -3.657204   0.36546254   -1.7581876 0.00042121468 
  565000    1.4149714   -3.5924101   0.40917466   -1.2376498 1.8608133e-06 
  566000   0.65335577   -3.8122761   0.52012266   -2.3937892 -0.00020764014 
  567000   0.75671285   -3.9747099   0.86850392   -2.0657258 -0.00058016866 
  568000   0.83747376   -4.1349962   0.13251862   -2.8509512 0.00023751191 
  569000   0.88531926   -3.4216078   0.60315688   -1.6011369 -7.6691626e-05 
  570000    1.1915579    -4.005509     1.076179   -1.2909379 1.4080078e-05 
  571000   0.79633142   -2.9235253   0.71846964      -1.1101 0.00011073891 
  572000    1.0015575   -2.9122124   0.50182905   -1.0332418 -6.8265414e-05 
  573000   0.61659164   -3.6494361   0.29556259     -2.50606 5.7521968e-05 
  574000    0.7911478   -3.9667405   0.36326734   -2.5156449 0.00016151817 
  575000    1.4171779   -3.7067326   0.64665571   -1.1114573 0.00027670645 
  576000   0.85666293   -4.2684646    0.8257479   -2.2648051 -0.00050172845 
  577000   0.84962181   -3.7768411    1.0016114   -1.6069997 0.00010914796 
  578000    1.2617178   -3.9807329   0.23162903   -2.0142418 0.00047747368 
  579000    0.9533322     -4.14779   0.71582907   -2.1211292 -0.00042595281 
  580000    1.1619476   -3.2454785   0.23211682   -1.4156838 0.00033830089 
  581000   0.83969917   -2.5137126   0.38603365  -0.97309256 -0.00034648893 
  582000   0.55781948   -3.7186884   0.31718346   -2.6345032 0.00011658321 
  583000   0.88169059   -3.5754907   0.43695717    -1.926209 0.00016091103 
  584000   0.85034981   -4.3102262   0.84944977   -2.2915455 -0.00048862455 
  585000    1.1894832   -3.6215421   0.09716103   -1.8888417 3.9236351e-05 
  586000      1.24124   -4.0286077   0.57160807   -1.7502946 -0.00018270666 
  587000   0.79054071   -4.0062879   0.95049121   -1.9688032 -9.2148706e-05 
  588000    1.3072249   -4.4440361   0.35108512   -2.2955167 5.4953232e-05 
  589000    1.4546153   -3.6003961   0.42548644   -1.1748137 0.00016378424 
  590000   0.75791798   -3.6982442   0.64110263   -2.0150044 -0.00038301422 
  591000    1.1561817   -3.9274232   0.68996774   -1.6477056 -9.8841936e-05 
  592000   0.49459686   -4.3475218   0.33006808    -3.337383 4.9633508e-05 
  593000    1.0646175   -3.9256877   0.53596456   -1.9258741 0.00015822498 
  594000   0.84288243   -3.6541172   0.46933747   -2.0258164  0.000374042 
  595000    1.3976535   -2.9933017   0.70337882  -0.36814931 0.00014498737 
  596000   0.84451918   -3.4572934   0.90203749   -1.3940421 0.0001064455 
  597000   0.92670397   -3.9282431   0.59949215   -2.0545329 -0.00035209598 
  598000   0.89284989   -3.7712482   0.74792884   -1.7956507 -0.00021576999 
  599000   0.74518192   -3.6288578   0.75210755   -1.8521251 -0.00019323218 
  600000    1.1058483   -3.9471619   0.48338174   -1.9432388 -0.00022884683 
  601000    1.1146435   -3.8626453   0.28213225   -2.0478782 0.00012749815 
  602000     1.586829   -3.6410619   0.43327876   -1.0258933 -5.8075549e-05 
  603000    1.2260144   -3.5963946   0.27533282    -1.635292 0.00057717836 
  604000     1.187955   -3.9238138   0.53163373    -1.758742 7.6389974e-05 
  605000   0.95301411   -3.8387493   0.25689051   -2.2714644 0.00023912975 
  606000   0.95063835   -4.3050445   0.18885314   -2.8090636 9.0434703e-05 
  607000    1.3266106   -3.7705653   0.58841433   -1.3580614 0.00014623916 
  608000   0.86225141    -3.969004   0.12281387   -2.6605944 0.00027546903 
  609000    1.5102333   -4.1524028   0.37528832   -1.7005436 -0.00021061066 
  610000   0.98992518   -4.2704932   0.47511438   -2.4342317 -0.0002404567 
  611000   0.95702407    -3.704417     0.464654   -1.9238549 -5.5319474e-05 
  612000    1.0554678   -3.3833935   0.20887448   -1.7232507 7.283538e-05 
  613000    0.9265836   -3.7255863   0.76947495   -1.6820589 0.00029944385 
  614000    1.2022081   -4.0547358   0.83026522   -1.5714344 0.0003608796 
  615000     1.188196   -4.1444144   0.33435474   -2.1762901 2.078779e-05 
  616000   0.69117148   -3.3320227   0.68451903   -1.6971428 -0.00017406142 
  617000   0.69420854   -4.0194684   0.46776899   -2.5971627 -6.4920378e-05 
  618000    1.2225368    -3.461012   0.49212988    -1.287894 -0.00024965651 
  619000   0.95823484   -3.7164805    0.5378284   -1.8610791 0.00015349378 
  620000    1.3645942   -3.3547259   0.38445737   -1.0939515 0.00010613609 
  621000   0.91413385   -3.6128351   0.50311553   -1.8527855 -2.4537203e-05 
  622000   0.64357245   -4.0176416   0.18958657   -2.9431429 -2.8859351e-05 
  623000    1.1925059   -3.8675475    0.6930124   -1.5348394 -0.00016962609 
  624000   0.69226152   -4.0602408   0.69031181   -2.4180694 -0.00021214785 
  625000   0.66748137   -2.8758547   0.49304028   -1.4650275 0.00061837569 
  626000   0.96803579   -4.0991794   0.36321473   -2.4049154 0.00015172504 
  627000   0.94632965   -3.5823526   0.74352745   -1.5376219 -0.00038972386 
  628000   0.71950976   -4.2435686   0.38914568    -2.865097 0.00028971332 
  629000   0.70493928   -3.1208626   0.26790337   -1.8836677 9.550071e-05 
  630000   0.82889287   -3.9403672   0.38557347    -2.415066 5.8418173e-06 
  631000    1.0505839   -3.8094219   0.53304927   -1.8318197 9.4408689e-05 
  632000   0.97587819    -4.101729   0.38658086   -2.3733156 -0.00017342789 
  633000    1.1884678   -4.0865632   0.52299102   -1.9294289 -0.00018655954 
  634000    1.0915309    -3.952609   0.49413993   -1.9576141 -1.3157055e-05 
  635000    1.2919355   -3.5493052   0.41375156   -1.3591423 -0.00021695607 
  636000    0.9001447   -3.6068399    0.5707552   -1.7983857 3.5333829e-05 
  637000   0.97985896   -3.6007026   0.58355386   -1.6698426 -1.5752465e-05 
  638000   0.86313606   -3.8751957   0.22220789   -2.4661757 -4.081628e-05 
  639000   0.70393886   -3.9784235   0.40707753     -2.60343 -6.5292106e-05 
  640000   0.89879178   -4.0129512   0.72632407   -2.0507884 -0.00014025884 
  641000    0.8821718   -4.3518675   0.19659004   -2.9422912 6.8776042e-05 
  642000    1.0843267   -3.6917366   0.46120533    -1.739582 -0.00017645357 
  643000    0.7676765   -4.2506513   0.44464564   -2.7504504 -0.00013787078 
  644000   0.90693202   -3.7505786   0.34895643   -2.1545906 -7.8654666e-05 
  645000    0.5971293   -3.6303431   0.48314219   -2.3261481 -8.5439661e-05 
  646000    1.0999888   -3.2997536   0.40411477   -1.3831543 6.9247215e-05 
  647000    1.0876343   -3.9024472   0.22509187   -2.1818581 0.00020104062 
  648000    1.2838025   -2.9005167   0.42670721  -0.70858108 -0.00019970088 
  649000   0.76841469   -3.6464264   0.34864411   -2.2412121 0.00031229384 
  650000   0.49478272   -3.2629778    1.0372942   -1.5453574 -0.00055348103 
  651000    0.8040465   -4.1390497   0.43633441   -2.5971513 -0.00041347463 
  652000   0.95363599   -3.8901682   0.67612087   -1.9027979 -0.00027904871 
  653000    1.1150798   -3.7181578   0.38744086   -1.7974822 4.6801147e-05 
  654000    1.2024209   -4.1699689   0.70713428   -1.8095058 -0.00018758093 
  655000    1.1443144   -4.2701514   0.50994885   -2.1867702 -0.0001001321 
  656000    0.8262572   -4.4413928   0.62286056   -2.6824286 -0.00012045487 
  657000   0.76534109   -3.9627362   0.41071296   -2.4996792 -0.00017754192 
  658000   0.69711693   -3.9840497   0.40602939   -2.6194845 -0.00028609003 
  659000   0.98316467   -3.8027717   0.95648798   -1.4944323 -0.00015839638 
  660000   0.77557368   -4.1257251   0.58712499   -2.4721863 0.00033273838 
  661000   0.88624254   -3.8164605   0.25199345   -2.3458835 0.00031227965 
  662000    1.0621918   -4.2636339   0.20564017     -2.59748 9.4555569e-05 
  663000    1.0282079   -3.4222739   0.54260031   -1.4658877 -0.00010148054 
  664000    0.7061495   -4.2351002   0.53870758   -2.7254371 -0.00046576907 
  665000   0.57757872    -4.061995   0.50628548   -2.7615388 -0.00034831009 
  666000    1.2695187   -3.8445236   0.64993488   -1.4490006 0.00014734782 
  667000   0.98997469   -4.3587977   0.55083083   -2.4467517 -4.4487439e-05 
  668000    1.5654872   -3.8665032    0.2226829   -1.4912755 0.00068165173 
  669000    1.4025551   -3.0152627   0.39369979  -0.69304961 0.00019681602 
  670000    1.4307373   -4.0251976   0.52904384     -1.52889 -3.916331e-05 
  671000    1.0602336    -4.290314   0.48605159   -2.3464412 -0.0002003622 
  672000   0.82013439   -2.6757534    0.7469814  -0.80108719 -0.00017662337 
  673000    0.8238479    -4.104876   0.88642805   -2.0856571 3.5553502e-05 
  674000   0.89899786   -3.6185899   0.44862909   -1.9338387 0.0001696418 
  675000     0.875696   -3.6049569   0.60650489     -1.79437 -8.6835063e-05 
  676000   0.75523311   -3.7012592   0.24148323   -2.4213304  0.000291236 
  677000   0.92573594    -3.765146    1.1350054   -1.3572537 0.00035324769 
  678000    1.0463439    -4.129766   0.53772496   -2.1533182 0.00013883437 
  679000    1.1374586   -3.5799404   0.27312016   -1.7428147 -6.158909e-05 
  680000    1.0394384    -3.441626   0.68033357   -1.3320646 -0.00026586061 
  681000   0.92626052   -3.7738769   0.53162583   -1.9686429 -0.00016449597 
  682000   0.86741259   -3.9494565   0.46191301   -2.2948512 -0.00024849565 
  683000   0.83485436   -3.9131763   0.56478977   -2.2004618 0.00043276042 
  684000   0.69979364   -3.8062593   0.21248056   -2.6315625 -0.00024721304 
  685000    1.3594259   -3.2364333   0.67616761  -0.69105504 4.249269e-06 
  686000   0.97870808   -4.4026533   0.54989442   -2.5070353 -2.8838491e-05 
  687000    0.9550356   -3.6478418   0.34299381    -1.991674 9.9409076e-06 
  688000    1.2597545   -4.0929902   0.72127675   -1.6395509 -0.00025068298 
  689000   0.69729999   -4.0501866   0.91844097   -2.1729582 -0.0002125766 
  690000     0.717445   -3.0895874   0.50143284   -1.6016677 9.7606413e-05 
  691000   0.51955064   -4.1676977   0.70094561     -2.75237 -8.9744762e-05 
  692000    1.2178851    -3.593457     0.265896   -1.6529691 -4.2471028e-05 
  693000    1.0248073   -4.1783776    0.5852039   -2.1840637 -0.000255775 
  694000    1.1757716   -3.7147749   0.54349301    -1.554596 0.00019544588 
  695000    1.2093674   -3.4497328   0.33544558   -1.4514071 0.00023238214 
  696000   0.78619382   -3.5849224   0.55113377   -1.9527721 -0.000173223 
  697000   0.62682104   -4.3486662   0.38222367   -3.1045636 -4.7910554e-05 
  698000    1.5216586    -4.033389   0.59703813   -1.3440703 -0.0002417831 
  699000    1.1907344   -4.2702127   0.43538869   -2.1975642 -7.8776009e-05 
  700000    1.3900018   -3.8083482   0.54505742   -1.3520383 0.00039560089 
  701000   0.39279251   -3.9949682   0.50039288   -2.9544857 -7.3192007e-05 
  702000    1.2040244   -3.8705669    0.5067558   -1.7082776 -0.00025573151 
  703000   0.73494882   -4.0223755   0.66200445   -2.3498164 8.2180063e-05 
  704000     1.279126   -3.5023943   0.48827246   -1.2553237 -0.00045374505 
  705000    0.9901736   -3.8770103    0.6024667   -1.9130549 7.466121e-05 
  706000    1.1389005   -4.3481405   0.45564103   -2.3265113 -0.0002074202 
  707000    1.2122713   -3.5465684   0.28565435   -1.5940409 0.00017974944 
  708000    1.0859566   -4.1697934   0.46594872   -2.2106544 0.00030140351 
  709000    0.8795767   -4.1056304   0.53974351   -2.3564689 0.00034250412 
  710000    1.0601317   -4.1797571   0.43890747   -2.2831686 -0.00027658452 
  711000    1.1444923   -3.7226409    0.1553179   -1.9936461 5.2994217e-05 
  712000    1.3765277   -4.4146503   0.51600546   -2.0059193 4.428367e-05 
  713000   0.90767538   -3.9360718   0.67677956   -2.0112386 -0.00031390088 
  714000     1.013413   -3.7061192   0.88119056   -1.4314858 -0.00018181244 
  715000    1.1495644    -3.903727   0.55807019   -1.7650058 0.00014974852 
  716000     1.231454    -3.911804   0.65674037   -1.5618144 -0.00035215479 
  717000    1.1160704   -3.6686712   0.54125644    -1.592818 0.00017852239 
  718000   0.62560319   -4.1080324   0.61409661   -2.6337314 -0.0002145276 
  719000    1.2548269   -3.9195158   0.51320853   -1.6809202 -0.0001792006 
  720000   0.90239078    -4.073116   0.54130221   -2.2910264 5.4058084e-05 
  721000    0.9652123   -3.6927482   0.37544049   -1.9901408 0.00045833375 
  722000   0.49068814   -3.7093807   0.54577156   -2.4889129 0.00017665098 
  723000    1.2246205    -3.853218   0.37738865   -1.7919762 0.00049132142 
  724000    1.1039646   -3.3178434   0.35933444   -1.4405577 -1.7293808e-05 
  725000   0.92885892   -4.2215113   0.36206688   -2.5822634 4.9098226e-05 
  726000    1.2211033    -3.526483   0.57253294    -1.274933 -0.00041986614 
  727000   0.87388582   -3.8992273   0.37064308   -2.3269912 0.00021063241 
  728000   0.97543647   -3.7417574   0.48675525    -1.913777 -9.3242735e-05 
  729000    1.2335794   -3.8767115   0.23095303   -1.9495868 -0.00012312917 
  730000   0.76111296   -4.2108182   0.33934946   -2.8249384 -0.00040220376 
  731000   0.93634682   -3.7982425   0.61928195   -1.8914837 -0.00024345461 
  732000   0.81312922   -4.0923337   0.75639413   -2.2178869 -0.00010966953 
  733000   0.92892517   -4.1291094    1.0372204   -1.8146169 0.00033783812 
  734000   0.66392928   -4.1541198   0.56901404    -2.672203 -6.190636e-05 
  735000    1.2397109   -4.1186818   0.34444251   -2.0696368 0.00043527557 
  736000   0.73479182   -4.2225428   0.90012889   -2.3120751 -5.3512124e-05 
  737000   0.90059412     -3.83281   0.61499655   -1.9794965 -0.00018290768 
  738000    1.1650008   -3.4000097   0.35651231   -1.4416213 0.00016810717 
  739000    0.9798672   -4.4616278   0.35287887   -2.7614316 -0.00017549467 
  740000   0.99073992   -3.3776094    0.4115496   -1.6037924 -0.00018488973 
  741000    1.2028184   -3.1460636   0.35985626   -1.1323321 6.8620604e-05 
  742000   0.75915023   -3.8516497   0.48303956   -2.3247786 -3.5654145e-05 
  743000    1.3151164   -4.2464844   0.43086012   -2.0073392 0.00030574688 
  744000    0.7956822   -3.8916266   0.51517623   -2.2823874 0.00033839943 
  745000   0.95722335   -3.7132061   0.44356765   -1.9534564 -0.00036277506 
  746000   0.66297789    -3.168107   0.50843647   -1.7480759 2.6043727e-05 
  747000   0.96671496   -3.9936643   0.51239729    -2.152034 -0.00017075953 
  748000   0.78801395   -3.6470545   0.74645574   -1.8170796 3.3707854e-05 
  749000   0.73387633    -3.279233   0.43620457   -1.8339485 -6.4728857e-05 
  750000   0.99872054   -3.8379646   0.22493759   -2.2397862 -0.00013326156 
  751000    1.0384559   -3.7568954   0.49451734   -1.8345012 -0.00037004572 
  752000   0.72695799   -3.3774485   0.62509971   -1.7527815 0.00022755739 
  753000   0.98326139   -3.7527244   0.41599152   -1.9847485 -0.00020853949 
  754000   0.94663156   -3.6227782   0.30396744   -2.0171923 -4.8752791e-05 
  755000   0.76792451   -3.8391498    0.8351304   -1.9481232 -9.7264773e-05 
  756000    1.0648546   -3.6959074   0.21431476   -2.0174176 0.00010393194 
  757000   0.73680292   -4.3089833   0.40304324   -2.8928361 5.4099807e-05 
  758000    1.3366947   -4.1188945   0.66219936   -1.6187399 -0.00029117102 
  759000    1.1317287   -4.1048593   0.66930464   -1.8794277 -0.00010296556 
  760000    0.5508651   -3.6591436   0.57627765   -2.3254264 -0.00011845157 
  761000   0.94076506   -3.0809169   0.45526054   -1.3321044 8.0184144e-05 
  762000   0.91687193   -3.9310647   0.55215658   -2.1182092 -1.355576e-05 
  763000   0.37560465   -4.0385367   0.54691857   -2.9751618 -4.8390129e-05 
  764000    1.0015814   -4.1366866   0.45322404   -2.3062881 0.00010495559 
  765000   0.69893863   -3.8815453   0.83159693   -2.0889077 -0.0001662173 
  766000    1.2560209   -3.4965001   0.75507221   -1.0143992 0.00054268645 
  767000   0.85487916   -3.4891186   0.58296116   -1.7306986 -0.00014919996 
  768000    1.0381849   -3.6918293   0.24757538   -2.0167496 -8.0123536e-05 
  769000    1.3429849   -3.3637753    1.0087214  -0.50844963 -0.00024119176 
  770000    1.0882788   -3.1411409   0.57447133   -1.0702862 -5.9885176e-06 
  771000   0.50561164   -3.7012408   0.45331306   -2.5527117 0.00036441331 
  772000   0.89514216   -4.2678742   0.40000003   -2.6370537 -8.9639677e-06 
  773000   0.85024807   -3.7914948   0.45173768    -2.170666 7.5996799e-05 
  774000   0.70286359   -4.1571021   0.23592649   -2.9547382 0.00040079302 
  775000   0.91339285   -3.0375466   0.22229438   -1.5593371 0.00076300604 
  776000    1.0846882   -4.1571575   0.63263909   -2.0330721 -2.0457914e-05 
  777000    1.4225013   -3.9223564   0.96573034   -1.0006867 0.00013864399 
  778000   0.81787232   -3.9650423   0.52903964   -2.3114282 0.00041534808 
  779000   0.75852958   -4.0009715    0.7310988   -2.2268945 -0.00011954029 
  780000    1.2512388    -3.354758   0.50631568   -1.1279889 -0.00019779894 
  781000   0.86408686   -4.0815815   0.33143217   -2.5620299 -0.00026156545 
  782000   0.81307585   -3.8914458   0.35909578   -2.4143707 -0.00034518239 
  783000    1.0602183    -3.573372   0.40706527   -1.7085066 -0.00024354773 
  784000   0.95268419     -3.40446   0.39155736   -1.7029618 -5.9794104e-05 
  785000   0.75093693   -4.0037036   0.76911335    -2.202052 -0.00010038717 
  786000   0.97515338     -3.75983   0.38832052   -2.0306736 -0.00011894242 
  787000    1.1564846   -4.0349019   0.49268336   -1.9520522 0.00025551809 
  788000   0.99537763   -3.7511586   0.57693557   -1.8055788 -0.00014352683 
  789000   0.80146864   -4.3564376   0.60010675   -2.6543115 -0.00020620931 
  790000   0.84252954   -3.8255469    0.5370415   -2.1300273 0.00042360005 
  791000    1.3817993   -3.7394177    1.3697475  -0.46969621 -0.00029717344 
  792000    0.7604223   -4.1879717   0.49081426   -2.6515768 -0.00025093603 
  793000    1.2355765   -2.7222504   0.39264606  -0.63068662 -0.00013263718 
  794000    1.1352522   -3.5435266   0.52661738   -1.4559374 4.6065957e-06 
  795000   0.76257323   -3.8118863    0.2388568   -2.5244913 0.0002103029 
  796000    1.1370141   -3.5971564   0.59922245   -1.4345395 0.00023609128 
  797000   0.69246925   -4.1157853   0.54666237   -2.6169777 -0.00021521153 
  798000    1.1839293   -4.1572296    1.0101369   -1.5191899 -6.2261589e-05 
  799000   0.79472866   -3.9341812   0.38209948   -2.4593298 -0.00016256999 
  800000    1.0122951   -3.7938894   0.50903351   -1.8929502 -0.00020752638 
  801000    1.2993254    -3.982019   0.19913994   -1.9963066 -4.8302677e-06 
  802000    1.1013953   -3.5539565   0.44081625   -1.5987218 0.00013188746 
  803000    1.0149233   -3.3140499   0.28648183   -1.6320486 5.4311995e-05 
  804000   0.79512521   -3.9319207   0.26317336   -2.5754501 7.9511275e-06 
  805000   0.91968578   -4.1166203   0.62874339    -2.223309 -0.00048163313 
  806000    1.2573898   -3.7521786   0.85896219   -1.1643055 -0.00048555728 
  807000    1.3154758    -4.039426   0.19327642   -2.0373703 0.0005665678 
  808000   0.70249605    -4.102427    0.5309366   -2.6055583 -0.00011122419 
  809000   0.78372464   -3.7864029   0.90546744   -1.8033141 -0.00062591364 
  810000   0.82883538   -4.0223048   0.11735481   -2.7653014 0.00042394451 
  811000    1.4273304   -3.6786866   0.28258028    -1.433527 0.00012027068 
  812000    1.0418502   -4.2056094   0.36284768   -2.4102177 0.00019934128 
  813000   0.67309592   -3.6944599   0.31115234   -2.4578006 0.00020158786 
  814000   0.97903562    -3.821307   0.98826438   -1.4868687 -9.3801217e-05 
  815000    1.1182146   -4.3219687     0.537636   -2.2467876 1.2504154e-06 
  816000    1.1252479   -3.6702783   0.57461329   -1.5484491 -0.00033201699 
  817000   0.85336333   -3.8183247   0.29856859   -2.3463816 -0.00031299148 
  818000    1.0878449   -4.0852607   0.35479684   -2.2346771 0.00026535464 
  819000    1.0596045   -3.6366654   0.59711306   -1.5825961 -0.00038482303 
  820000    0.8356405   -3.8322368   0.23129344   -2.4519376 0.00034157754 
  821000    1.0839689   -3.2961976   0.62237414   -1.1833663 -0.00016203117 
  822000   0.85123196   -4.2517227   0.38654147   -2.6947373 -0.0001293684 
  823000   0.68891156   -3.5806164   0.78080862   -1.8525544 -5.9185073e-05 
  824000   0.99769209   -3.7152164   0.56272006   -1.7806697 -6.9891932e-05 
  825000   0.81877761   -4.0361466   0.24446261   -2.6658648 9.8542816e-05 
  826000   0.81757505    -3.635694   0.42046833     -2.09106 -3.5455346e-05 
  827000    1.1360577   -3.8855301   0.92182635   -1.4016244 -0.00035822212 
  828000    1.2733219   -4.3726744   0.78713394   -1.8347229 5.7059142e-05 
  829000   0.69006548   -3.8409099    0.3817766   -2.5102933 -1.1957421e-05 
  830000    1.0995395    -3.866074   0.49848936   -1.8557179 -0.00016148888 
  831000   0.71598823   -3.7839323   0.37675814   -2.4226903 0.00031226217 
  832000   0.77169827   -3.9337706    0.6220121   -2.2506733 -0.00027659953 
  833000   0.84618293    -4.526665    1.2486024   -2.1145611 -0.00060277542 
  834000   0.81591348   -3.9861801   0.30954675   -2.5547523 0.00014582495 
  835000     1.076203   -3.9738404   0.20960921    -2.284452 -2.9891042e-05 
  836000   0.65540809   -3.8390635   0.82477763   -2.1130998 3.8810287e-05 
  837000   0.88403498   -4.2639851   0.39244064   -2.6559964 6.2848919e-05 
  838000   0.85324242   -3.4199091   0.50479852   -1.7419022 4.414648e-05 
  839000    1.3287656   -4.1834731   0.48817943    -1.868241 -8.8043019e-05 
  840000    1.1062952   -4.1559465   0.40300316   -2.2317874 -0.00013480907 
  841000   0.83539746   -4.0470314   0.35994645   -2.5384135 -0.00022181954 
  842000     1.087261   -4.1554436   0.77925542   -1.8812043 -0.00031376336 
  843000     1.012821   -4.1142205   0.42456466   -2.2970269 0.00038098456 
  844000   0.53386956   -3.1763876   0.43446464   -2.0078523 0.00062685285 
  845000    1.2871974   -3.6033217   0.34670407   -1.4867212 6.3221574e-05 
  846000   0.72919779   -3.9146176   0.47510666   -2.4368639 0.00010745373 
  847000   0.89992359    -3.967824   0.93993409   -1.7904949 -0.00036333041 
  848000   0.92061363   -4.3511558   0.47475783   -2.6105542 -0.00029019526 
  849000     1.003214   -3.8512917   0.60726562   -1.8646068 -0.00013076703 
  850000    1.0460339   -4.2118651   0.60485767   -2.1687108 -0.00018857827 
  851000   0.96089806   -3.9567313   0.62532629   -2.0101702 -0.00053417512 
  852000    1.1480404    -4.274754   0.71677679   -1.9794217 -0.00043781106 
  853000   0.71958045   -4.1382606   0.20134839   -2.9474891 -0.00013753981 
  854000    1.1308358   -3.8171679    0.2997191   -1.9625496 -3.1755695e-07 
  855000   0.94972528   -3.9993988   0.48970464   -2.2038219 4.2953145e-05 
  856000   0.92081167   -3.7416093   0.46381881   -2.0116744 0.00028922989 
  857000   0.96381943   -3.4756262   0.59792028   -1.5524542 7.0934855e-05 
  858000   0.75292335   -2.9706345   0.36028922   -1.5750757 0.00047044066 
  859000    1.3853274   -3.9550163   0.70714635   -1.3430449 -0.00025881776 
  860000   0.73191349   -3.5724595   0.68194079   -1.8841377 1.6874514e-05 
  861000    0.6128884     -3.43139   0.42100517   -2.1676633 -6.6159943e-05 
  862000    1.3497506    -3.970893   0.79368289    -1.321303 -0.00010916099 
  863000   0.77426397   -3.9424045   0.31624709   -2.5615444 -2.7449129e-05 
  864000   0.77926924    -4.107164   0.34953176    -2.686137 -0.00024302544 
  865000   0.95310797   -3.8691206   0.34420226   -2.2143948 -1.4326658e-05 
  866000   0.66128456   -4.0990453    0.2229906   -2.9667885 6.0326922e-05 
  867000   0.64353048   -4.1277276   0.52607384   -2.7167994 -0.00010534473 
  868000    0.8587743   -3.7574695   0.57103648   -2.0056183 -0.0002789389 
  869000    0.9913257   -4.0508363   0.42156078   -2.2662027 -0.00036453801 
  870000   0.75933808   -3.7406012   0.21294184   -2.4835695 9.0580099e-05 
  871000   0.90524982   -3.7037984   0.74431648   -1.7147634 4.1009331e-05 
  872000    0.9182359   -4.2499864    0.6573063   -2.3301057 -1.3544715e-05 
  873000    1.2808927   -4.1786353   0.32874392   -2.0886639 0.0002458244 
  874000   0.93705582   -4.0947125   0.57358167    -2.232679 -0.00013874199 
  875000    1.5079157   -3.9288858   0.40768782   -1.4478139 0.00028679995 
  876000   0.59029305   -3.6689744   0.34768141   -2.5096401 0.00011057214 
  877000    1.2941037   -4.2231027   0.40923836   -2.0344717 0.00012380377 
  878000    1.2822302   -3.4642503   0.32959993   -1.3715839 -0.00041422275 
  879000   0.73688303   -4.2650128   0.30837247   -2.9434262 -1.4063272e-05 
  880000    1.1072582   -4.0923809   0.43130421   -2.1385967 0.0001666335 
  881000    1.1213815   -3.3846518   0.60642646   -1.2363258 0.00035965821 
  882000    1.0577823   -4.3195187   0.37245949   -2.4926086 -0.00018306789 
  883000    1.1883153   -4.1472007   0.62998343   -1.8832837 -0.00032838261 
  884000   0.94761696   -4.1031652   0.58509595    -2.215096 5.1165107e-05 
  885000    1.5503871   -3.7302426   0.63912583  -0.95933448 0.00010375236 
  886000   0.80557108   -3.8244275   0.32556449   -2.3912027 -0.00026036669 
  887000   0.85579365   -4.0170308    0.4210342   -2.4192803 1.2472131e-05 
  888000   0.78451678   -3.7081977   0.27525711     -2.35423 0.00028019191 
  889000    1.1390483   -4.0647456   0.66416904   -1.8343852 -0.00049220776 
  890000   0.97909762   -3.5004407   0.49950552    -1.654676 -3.4562277e-05 
  891000    1.3705502   -4.2495939   0.32008801   -2.0449994 -0.00036444018 
  892000   0.92485427   -3.7578441   0.45789136   -2.0282781 1.5921198e-05 
  893000   0.56833368    -4.147175   0.84567117    -2.520045 0.00011776861 
  894000   0.80443009   -3.9550409   0.73525431   -2.1136952 -0.00015201578 
  895000   0.67825797   -4.1856852   0.67442333   -2.5786572 -7.5733726e-05 
  896000    1.0728532   -3.9760709   0.28016262   -2.2207351 0.00020853265 
  897000   0.96020237   -3.7752279   0.42311814   -2.0318315 -4.5349862e-05 
  898000    1.1099702   -3.8484211   0.43711475   -1.8850974 0.0004733914 
  899000   0.90843164    -4.366438   0.74011575   -2.3772287 -0.00015160023 
  900000   0.83115314   -4.0629667   0.77148919   -2.1486419 -0.00011254336 
  901000   0.69773906   -3.8587354   0.29632338   -2.6030208 -0.0002478558 
  902000   0.89441116   -4.0221992   0.38504381     -2.40734 0.00025793267 
  903000    1.0326079   -3.8798336   0.52307743   -1.9369203 -0.0001057495 
  904000    0.6167067   -4.2547334   0.53052542   -2.8762363 9.632438e-05 
  905000   0.95852286   -4.0024068   0.36948142   -2.3149565 -7.6777617e-05 
  906000   0.70636059    -3.910067   0.21049801   -2.7283232 0.00013405098 
  907000    1.1268783   -3.7799106   0.76317768   -1.4672753 -0.00025399676 
  908000    0.8548221   -4.2328045   0.65305269   -2.4043714 -0.0003205109 
  909000    1.0405243   -4.1758321   0.24079173   -2.5043195 -7.7673407e-05 
  910000    1.4259827   -3.8568537   0.35560738   -1.5405201 9.6438783e-05 
  911000    1.0425337   -3.9535937   0.57026414   -1.9498458 -0.00021350616 
  912000    1.3334967    -3.482847   0.43710196   -1.2121871 -8.6410647e-05 
  913000    1.2399165   -4.0215453   0.45456021   -1.8620999 0.00013711406 
  914000   0.92593223   -4.4813721   0.44145399   -2.7667613 0.00014380516 
  915000    1.3457972   -4.2782235   0.33633278   -2.0914196 0.00022679916 
  916000   0.94083967   -3.7638206   0.68800958   -1.7821565 0.00012547885 
  917000   0.98512139   -3.6932098   0.56796939   -1.7706985 -0.00028474391 
  918000   0.59001284   -3.8103735   0.29692235   -2.7021835 -6.8051231e-05 
  919000    1.2517824   -3.8735743   0.69812613   -1.4542474 -0.00023819059 
  920000    1.3830446   -4.1972757   0.20647988   -2.0891095 0.00013274558 
  921000    1.2306523   -3.9117071    0.4803602      -1.7392 -0.00022682282 
  922000   0.91111491   -3.6456731   0.27558029   -2.1173098 2.6458755e-05 
  923000    1.5493627   -3.7816775   0.45651499   -1.1947889 -3.5404661e-05 
  924000    1.0818467   -3.7838567   0.45947634   -1.8368411 3.0450588e-05 
  925000    1.2083255   -3.6163627   0.36939388   -1.5855211 3.4746122e-05 
  926000   0.65851027   -3.8658416   0.61354175   -2.3468482 -0.00029066252 
  927000    1.0414729   -3.0742917   0.32852103   -1.3137455 0.00014189739 
  928000   0.82199245   -4.1610548   0.80278197   -2.2280332 -0.00010514677 
  929000   0.82330975   -3.8919798   0.50330555   -2.2566233 -2.9542773e-05 
  930000    1.2567413   -3.5272214   0.87813651  -0.92106562 -0.00017164434 
  931000   0.78454266   -4.0868479   0.55689503   -2.4512067 -0.00014811478 
  932000    1.0658487   -3.3988381   0.18792739   -1.7453688 0.00013967596 
  933000    0.9367599   -3.6568326   0.69990824   -1.6688795 -0.00028725049 
  934000   0.75388934   -3.1954471   0.38775673   -1.7710925 -0.00015548386 
  935000    0.7054461   -4.0115687   0.23091036     -2.81067 -0.00021311458 
  936000   0.89557275   -4.3172471   0.55697319   -2.5288614 -0.00040389579 
  937000    1.0932341   -3.9916206   0.26285452   -2.2255692 4.2055888e-05 
  938000    1.1475495   -3.1875277   0.44393984   -1.1657073 0.00011271327 
  939000   0.91477834   -3.8505972   0.49309861   -2.0996784 3.6906502e-05 
  940000   0.75689423   -3.6188938   0.53821597   -2.0399482 -0.00025888961 
  941000    1.7231862   -4.0378839   0.36017531   -1.3083275 0.00023912911 
  942000     1.055026   -3.4338382   0.30594808   -1.6772294 -0.00026527968 
  943000    1.4525615   -4.2416109   0.59871975   -1.6456191 4.2891235e-05 
  944000    1.1761685   -4.0790204   0.58680326   -1.8749855 -0.00020206873 
  945000   0.78715515   -4.4565998    0.3278251   -3.0464364 -0.00024461277 
  946000   0.76924826   -3.7104911   0.21815109   -2.4346236 0.00022157472 
  947000    1.5213858   -3.4742267    0.5390107  -0.84331058 0.00014234425 
  948000    1.0642918   -4.0866415   0.30501891   -2.3182214 0.00013776957 
  949000   0.90541934   -4.1416865    0.5456648   -2.3510701 -0.00014005964 
  950000    1.0066333   -4.4746171   0.47803284   -2.6124635 8.527605e-05 
  951000    1.0398752   -4.2101679   0.46316565   -2.3171739 0.00029567328 
  952000   0.83873382   -3.7347921     0.651662   -1.9298711 0.00032075254 
  953000    1.1350105     -4.12007    0.3301695    -2.229261 0.00014072076 
  954000    1.0917243   -3.3437144   0.26446098   -1.5781325 0.00024828475 
  955000   0.79647897   -3.8651784   0.31757261   -2.4524472 3.6259754e-05 
  956000    1.2204259   -3.6426884   0.51164459   -1.4529582 -0.00010530814 
  957000    1.3388234   -3.6692951   0.45800966   -1.3704033 -0.0001817675 
  958000   0.53130465   -4.0584474   0.14561037   -3.1822931 -0.0001992834 
  959000   0.88525425    -3.738176   0.90457213   -1.6163793 -0.000258787 
  960000    0.7887348   -4.1367856   0.39339495   -2.6588803 -0.00017210654 
  961000   0.89726956   -3.6203888   0.31456231   -2.0720808 -0.00016309455 
  962000     1.545097   -3.4919394   0.45098635  -0.91644471 0.00010594037 
  963000    0.6774927   -3.3899825   0.25808225   -2.2003478 -0.0001043751 
  964000   0.90626228   -3.6543541   0.14995858   -2.2582849 0.00052167179 
  965000     1.219491   -3.6532612   0.29025165   -1.6862094 1.8375944e-05 
  966000   0.53711594   -3.8305132   0.51211872   -2.5798601 -0.00028761276 
  967000    1.1318643   -4.0880954   0.76511486   -1.7666671 2.8929139e-05 
  968000    1.0965445   -4.1497738   0.42145806   -2.2205671 0.00035167896 
  969000   0.90125551   -3.9574227   0.24918579   -2.4690106 -0.00012204025 
  970000    1.0936207   -3.8241359   0.40404597   -1.9163614 -0.00012541468 
  971000   0.80921316   -3.9054692   0.51157081   -2.2812303 0.00017831404 
  972000    1.3915766   -3.8669471   0.35403709   -1.5994922 0.00014917992 
  973000    1.1973121   -3.9701166   0.54985564   -1.7739569 -0.00011858844 
  974000    1.0471224   -4.3130582   0.30784829   -2.5654167 0.00013129551 
  975000   0.88378334    -3.626853   0.41442248   -1.9972284 0.0004375179 
  976000    1.2446915   -3.3069744   0.53051853   -1.0650051 0.00025929582 
  977000   0.92813698   -4.2012269   0.36013535   -2.5649032 -0.00014018644 
  978000    0.9797759    -3.834466   0.34689153   -2.1403826 -1.4023403e-05 
  979000    1.3388878     -4.27679   0.32096041   -2.1148589 -0.00018504993 
  980000   0.64560885   -3.4959847   0.28895541   -2.3193171 0.00016889803 
  981000   0.87880963   -4.1681971   0.44224938   -2.5175844 -0.00039172512 
  982000   0.93218984   -3.8573355   0.84295323   -1.7326212 -0.00041422596 
  983000    0.4996747   -3.8580868   0.24571874   -2.9253153 3.583198e-05 
  984000   0.70735475   -3.7133418   0.48374271   -2.2569863 0.00012166806 
  985000    1.4629831   -3.9915191   0.40402576   -1.5758916 0.00011169149 
  986000    1.2750418   -3.8635868   0.34543524    -1.764969 -0.00014491578 
  987000    1.1579572   -4.2708861   0.34382662   -2.3348683 0.00020231647 
  988000     1.127363   -3.8968722   0.36653519   -1.9802129 0.0002498602 
  989000   0.80693379   -4.1469642    0.4937896   -2.5436406 -0.00016403293 
  990000    0.8325569   -4.2069808   0.55038046   -2.5118346 -0.00028446997 
  991000   0.96024581   -3.8657269  0.096527174   -2.4488618 0.0001933421 
  992000    1.4677112   -3.9648397   0.50847365   -1.4382632 -2.00531e-06 
  993000      1.10418   -3.8254455   0.62095024   -1.6862477 -0.0002731208 
  994000   0.83809183   -4.3383642   0.36690065   -2.8190873 0.00012323492 
  995000    1.0235929   -3.7824877   0.77284531   -1.6022022 -6.9851592e-05 
  996000   0.76119823   -4.0220658   0.60967205   -2.3657462 0.0004741372 
  997000    1.3330237   -4.1695886   0.37854803   -1.9581329 0.00040886684 
  998000     1.576292   -3.5644974   0.37132765   -1.0257683 0.00037537905 
  999000    1.1689471   -3.5212636   0.30546586   -1.6084955 -3.1480127e-05 
 1000000   0.93445409   -3.5448197   0.38076111   -1.8791842 0.00020631532 
 1001000   0.71876532   -3.8324204   0.43810791   -2.4060102 0.00029966045 
 1002000    1.0981663   -4.0414279   0.17590448   -2.3555448 0.00032971441 
 1003000    1.2345553   -4.2209506   0.34844213   -2.1749949 0.00015887843 
 1004000    1.2068354   -4.3836901   0.34932603   -2.3749654 -1.8110103e-05 
 1005000   0.82356842   -3.7281289   0.24098517   -2.3547372 -2.1268257e-05 
 1006000   0.99674612   -4.0400533   0.35457641    -2.314951 -9.0121036e-05 
[...]
 9754000    1.1416323   -3.5757715   0.40333357   -1.6026935 0.00049349638 
 9755000    1.2846224     -4.05114   0.39351077   -1.8912735 0.00015431445 
 9756000    1.0559908   -4.0150678   0.63328906   -1.9297913 -0.00012616982 
 9757000   0.81523763   -3.1007845   0.34715123   -1.6326815 0.00028659502 
 9758000    1.1249247   -3.8977909    0.7356373   -1.6153821 4.8381747e-05 
 9759000   0.96167946   -3.9394069   0.40543101   -2.2116666 0.00024872082 
 9760000   0.68211395   -4.3207417   0.38719319   -2.9956418 -3.4538899e-05 
 9761000    1.2174457   -4.0608767   0.45810532   -1.9287835 -0.00015550106 
 9762000    1.0305816   -4.4439952   0.24407391   -2.7828716 6.3063776e-05 
 9763000   0.58964247   -4.2843841   0.45326989   -3.0203558 0.00025049367 
 9764000    1.0724036   -4.0626395   0.42891718   -2.1591674 1.0305601e-05 
 9765000   0.79866186   -4.4090716   0.30594097   -3.0049706 -0.00025255428 
 9766000   0.95772547   -3.7993642   0.61274549   -1.8697462 7.9002784e-05 
 9767000   0.90488112   -4.1550775   0.40094951   -2.5099165 3.2832602e-05 
 9768000   0.56840752   -4.0504271   0.41653225   -2.8523346 6.1331346e-05 
 9769000    1.1406798    -4.259773   0.45311939   -2.2382189 -0.00014892371 
 9770000   0.91625562   -3.8250826   0.31531344   -2.2499177 0.00037658858 
 9771000    1.0522382   -4.0186243   0.34882269   -2.2229741 -2.7214358e-05 
 9772000    1.4702923   -4.2048702     1.021205   -1.1620134 2.2640422e-05 
 9773000   0.99154992   -3.5287066    0.4696222   -1.6957032 7.0639038e-05 
 9774000   0.93115797   -3.5972467   0.62421078   -1.6926937 -4.6745459e-05 
 9775000    1.5358983    -3.927036   0.42125038   -1.3939254 -7.3302469e-05 
 9776000    0.9224811   -4.0559558   0.38921194   -2.3983324 -1.3492665e-05 
 9777000    1.0876048   -3.9503151   0.57185455   -1.8830039 -0.00017643564 
 9778000    1.7048225   -4.2127767   0.25871269   -1.6099331 4.0129408e-05 
 9779000    1.3798346   -4.3206927   0.25647116    -2.166949 2.694352e-05 
 9780000     1.196194   -4.3428065   0.28797821   -2.4100615 -0.00015587263 
 9781000     1.278234   -3.7596589   0.22364688   -1.7784402 0.00011996766 
 9782000   0.90588923   -4.1635422   0.38159283   -2.5363517 0.00014481358 
 9783000   0.88493612   -4.0110935   0.46016349   -2.3341428 0.00019351238 
 9784000   0.83315864    -4.073729    0.3988322   -2.5293037 0.00019609873 
 9785000    1.6625139   -4.2354586   0.71629821   -1.2332039 -0.00021481692 
 9786000    1.1976832    -4.165987   0.74336474   -1.7758079 -0.00027619447 
 9787000   0.76329834   -4.3423204   0.30574639   -2.9870388 -2.4627302e-05 
 9788000    1.0710975   -4.3207344   0.51020021    -2.337775 -4.5173748e-05 
 9789000   0.76277775   -4.0711659   0.47627707   -2.5460694 0.00029141605 
 9790000   0.86932777   -4.1716292   0.64589146   -2.3304121 0.00022112765 
 9791000    1.1088336   -4.1185505   0.33793915   -2.2559651 -3.9542204e-05 
 9792000   0.83228896   -4.0895026   0.51058626    -2.434519 0.00021526116 
 9793000   0.98242023   -4.2030396   0.57073731   -2.2814744 -0.00025337987 
 9794000    1.5910658   -3.9134729    0.3183633   -1.4073941 0.0001230655 
 9795000   0.92370078   -3.8182236   0.26948411   -2.2786509 -0.00027142013 
 9796000   0.73359835   -4.3165678   0.30490041   -3.0029696 0.00016984666 
 9797000    1.5803683   -4.2608792   0.31661812   -1.7712547 0.0002726086 
 9798000   0.76011678   -4.2138699   0.34141583   -2.8272935 0.00029668139 
 9799000   0.85997418   -3.8670356   0.43934715   -2.2452239 -3.5069335e-05 
 9800000   0.93583564   -4.3273759   0.36980196   -2.6707999 0.00012242022 
 9801000    1.1778439   -3.9977147   0.36586685   -2.0123125 -0.00012095168 
 9802000    1.0237967     -4.38952   0.65434537   -2.3274541 -0.00016196781 
 9803000   0.75119545   -4.2700444   0.55358578   -2.6835649 0.00033380852 
 9804000    1.0140318   -3.8342698   0.20895159   -2.2310245 0.00026489796 
 9805000    1.1441664   -3.6923633   0.46060506   -1.6585294 9.9738663e-05 
 9806000    0.9778334   -3.9378491   0.14056938   -2.4527588 0.0001621262 
 9807000    1.1060506   -4.0036197   0.24689117    -2.235909 -0.00032175326 
 9808000    1.0846176   -3.8146445   0.46783315   -1.8554621 4.3274509e-05 
 9809000   0.98908233   -4.2230878   0.33917812   -2.5239215 -6.8034536e-06 
 9810000   0.63826238   -3.6425644   0.24868278   -2.5162708 3.3972287e-05 
 9811000    1.3011175   -4.0764021   0.50413221   -1.7832334 0.00044045363 
 9812000   0.99314058   -4.3088721   0.21057309   -2.7327307 -2.0919921e-05 
 9813000    1.0675995   -3.9616749   0.46034425   -2.0333814 -0.00019527857 
 9814000     1.079295   -4.0454857   0.41568117    -2.145774 0.00039189471 
 9815000   0.88524448   -4.3499487     0.508792   -2.6239455 -4.4395479e-05 
 9816000    1.1933143   -3.5753183   0.26726398   -1.6672472 0.00015326769 
 9817000   0.84371548   -4.1597381   0.71590323    -2.283726 -0.00057478246 
 9818000    1.2798827    -3.728702    0.4190263   -1.5498369 0.00022811984 
 9819000   0.64693475   -4.0422052   0.32432651   -2.8283435 0.00015519443 
 9820000    1.3504981   -4.1002386   0.31874162   -1.9245621 -7.4591369e-05 
 9821000   0.96617146   -3.7865296   0.26082895   -2.1972149 7.2923319e-05 
 9822000    1.0108671   -3.8028054    0.3435635   -2.0692996 -5.6477507e-05 
 9823000     1.078995   -3.4501459   0.45525146   -1.5112764 -0.00010069255 
 9824000    1.0794283   -3.6769347   0.68627496   -1.5064458 -8.4381184e-05 
 9825000   0.77195642   -4.0742212   0.36711835   -2.6456627 -0.0002002122 
 9826000   0.78961687   -4.2246372   0.33340327   -2.8055108 0.00020208987 
 9827000   0.92295309   -3.6200886   0.33524632   -2.0157818 -6.8431242e-05 
 9828000   0.89058578   -3.8301946   0.49377714    -2.111862 0.00020895561 
 9829000   0.70405161   -3.9504442   0.46419942   -2.5181738 -0.00027853619 
 9830000    1.0546541   -4.3603886   0.30997361   -2.6002656 6.1250753e-05 
 9831000    1.0869617   -4.1516093   0.26391804   -2.3931189 0.00035651976 
 9832000   0.71656313   -3.9821211   0.63691113   -2.3599357 -0.0004020577 
 9833000     1.149074     -3.76279   0.35286085   -1.8299524 1.3009536e-05 
 9834000    1.1515467   -3.7517284   0.35650289   -1.8118487 0.00012925179 
 9835000   0.74359688    -4.066521   0.45250334    -2.591572 0.00020100633 
 9836000    1.0074595   -4.4477542   0.62872107   -2.4337763 0.00010321226 
 9837000    1.0516549   -3.6100316   0.30207426   -1.8619319 7.1553232e-05 
 9838000   0.86537495    -4.171468   0.34662487   -2.6349526 -3.7480322e-06 
 9839000   0.71546106   -4.2669022   0.49300344   -2.7901398 0.00039543727 
 9840000    1.2488686   -4.3335683   0.32663518   -2.2897388 -0.00010716972 
 9841000    1.5512109   -3.8787887   0.59017986   -1.1556938 0.00019874192 
 9842000    1.1791246   -4.0643829   0.25722933   -2.1858572 0.0001789774 
 9843000    1.0613552   -4.1645015   0.25522298    -2.449915 -6.8700627e-05 
 9844000   0.87533139   -4.3751146   0.40857402   -2.7629599 -1.4640031e-06 
 9845000    0.9827407   -3.6686805   0.42492075   -1.8924912 2.6266084e-05 
 9846000   0.75604048   -4.0062199   0.43944282   -2.5272214 0.00026443587 
 9847000   0.77431652   -3.9086437   0.28250869   -2.5614498 -4.8494801e-05 
 9848000    1.7445349   -3.5146327    0.7017551  -0.41414214 0.00016507067 
 9849000    1.1205815   -3.8034388   0.34940823    -1.913231 -0.00037510918 
 9850000   0.78482182    -3.885168    0.7229108   -2.0831272 -0.00033744876 
 9851000   0.75060921   -3.7851401   0.37509348    -2.377959 9.4025941e-05 
 9852000   0.82972262   -4.2427363     0.493596   -2.6082717 -0.00019450099 
 9853000    1.0671463   -3.9217575   0.38695941   -2.0674718 4.1298978e-05 
 9854000   0.61608197   -4.3698752   0.43256962   -3.0901929 -0.00011057585 
 9855000    1.2575002   -3.9264912   0.38463693   -1.8127914 -0.00036733416 
 9856000    1.2365136   -3.9388381   0.30432349   -1.9343084 -0.00029674138 
 9857000    1.0139356   -3.8865261     0.796155   -1.6962096 0.00010524843 
 9858000   0.81320174   -4.0964673   0.38660988   -2.5917051 5.5634912e-06 
 9859000   0.62791412   -3.6528194   0.22146053   -2.5679769 0.00022674853 
 9860000    1.0983695    -3.373117   0.25420045   -1.6086585 0.00013314123 
 9861000    1.1070181   -4.3526329   0.49540638   -2.3350767 -0.00012837651 
 9862000     1.320099   -4.1133581   0.47907625   -1.8191458 7.0339215e-05 
 9863000   0.85239395   -4.0796165   0.14854128   -2.7590335 0.00012662122 
 9864000   0.53189259   -4.1278291    0.4252952   -2.9711815 -0.00015437438 
 9865000   0.97790647   -3.9711589   0.30429216   -2.3222453 8.0098088e-05 
 9866000   0.99313184   -3.7227422  0.063256862    -2.293929 0.00040731168 
 9867000   0.65061442   -3.9350153   0.37866425   -2.6617562 4.9775113e-05 
 9868000     1.115273   -4.2907665   0.40363265   -2.3536334 3.2999004e-05 
 9869000    1.0908541   -4.1297855   0.72206893   -1.9077921 7.2385247e-05 
 9870000   0.71111315   -4.3235905   0.43682361   -2.9089863 -0.00022519027 
 9871000   0.79986711    -3.772398   0.54982599   -2.1227547 0.0001188161 
 9872000    1.0236755   -3.9893548   0.20402089   -2.3777802 0.0005240601 
 9873000   0.76040143   -3.7939079   0.39368678   -2.3546692 -6.3952736e-05 
 9874000    1.4778665   -4.3042219    0.6573482   -1.6148072 -0.00021219931 
 9875000    1.0900556   -3.9493111   0.48028749   -1.9701971 -0.00039691665 
 9876000   0.69354637   -4.1554892    0.4641844   -2.7376786 3.2506039e-06 
 9877000    0.6396191   -4.2886222   0.30962552   -3.0995205 0.00021509073 
 9878000    1.3481999   -4.3370714   0.47433411   -2.0089624 0.00011502752 
 9879000    1.4759932   -3.8855862   0.37921836   -1.4768772 -4.1954714e-05 
 9880000    1.0894248   -4.1677779   0.44796306   -2.2218558 -0.00012039807 
 9881000   0.56156818   -4.5295914   0.25503653   -3.5023987 4.4442977e-05 
 9882000   0.85984994   -3.9165691   0.35948672   -2.3747887 -7.55152e-05 
 9883000    1.2030346   -4.0443894   0.35118745   -2.0390293 0.00011538019 
 9884000    1.2662602   -4.2589131   0.56069962   -1.9571056 1.4765016e-05 
 9885000    1.1161916   -4.1020685   0.46584656   -2.1014585 -7.8737892e-05 
 9886000   0.69221766   -4.1188949   0.42976781   -2.7373278 0.00018136913 
 9887000    1.0199489   -4.1853945   0.54619883   -2.2367659 -0.00038955385 
 9888000    1.2734344   -4.2194324   0.26738395   -2.2010762 0.0001560616 
 9889000   0.71673431   -4.2543156    0.2789305   -2.9898755 0.00032691162 
 9890000    1.2582816   -4.4404148   0.70309025   -2.0071874 9.1181599e-06 
 9891000    1.2388223   -3.8628485   0.93195934   -1.2275085 -0.00014263637 
 9892000    1.0585795   -4.3283149   0.78356597   -2.0892021 7.1357602e-06 
 9893000   0.96184976   -4.2762223   0.36448034   -2.5891985 5.7834863e-05 
 9894000    1.0518846   -4.1281701   0.27512356   -2.4067053 7.3179622e-06 
 9895000    1.0980716   -4.0243175   0.29532756   -2.2191415 -0.00026566563 
 9896000     1.816104   -3.9260189   0.28883483   -1.1400411 -0.00010450228 
 9897000    1.2992818   -4.2100037   0.55113948   -1.8723517 0.0001004859 
 9898000   0.96221991   -3.8610872   0.32795566   -2.2100792 0.00012578648 
 9899000    1.0350905   -3.4510974   0.62516934   -1.4026787 0.00015564157 
 9900000    1.0849879   -3.5747028   0.33864401   -1.7442004 0.00017339815 
 9901000    0.7393612   -4.1643639   0.41842284   -2.7293194 4.6523833e-05 
 9902000   0.70934269   -4.2093141   0.28835271   -2.9456152 -0.00032478007 
 9903000    1.1432068   -4.1455653   0.44060303   -2.1330529 -0.00012721617 
 9904000   0.78255271   -3.8755445   0.30534282   -2.4941917 -0.00027280174 
 9905000   0.79879351   -4.2737287   0.37660753   -2.7987801 -0.00040957499 
 9906000    1.1107143   -4.2585757   0.26632705   -2.4650165 7.5874809e-05 
 9907000    1.0435316   -4.1384955   0.27416601   -2.4294735 0.00010171298 
 9908000   0.93369987   -4.1631599   0.51563994   -2.3636826 -0.0001095773 
 9909000    1.1195319   -4.1987333   0.23621795   -2.4231591 -0.00014026845 
 9910000    0.8601868   -4.2765379   0.32148483   -2.7722962 5.4901893e-05 
 9911000    1.2065352   -4.4068236   0.64139832   -2.1064393 1.9988158e-05 
 9912000   0.96305868    -4.170889   0.22344314   -2.6232402 -0.000329856 
 9913000    1.0068497   -4.4237596    0.4316377   -2.6077035 -0.00010162146 
 9914000   0.84674794   -3.8839534   0.50084092    -2.218834 -0.00016968503 
 9915000    1.0508012    -3.927197   0.12765559   -2.3546897 0.00017262035 
 9916000   0.97041792    -4.052931   0.25463121   -2.4639751 -0.00011210415 
 9917000   0.77646966   -4.3528186   0.71447209   -2.5707007 -0.00050205487 
 9918000   0.77228068   -4.0826714   0.39174876   -2.6290367 -3.1182272e-05 
 9919000   0.81256005   -3.8451596   0.33488933   -2.3930002 -0.00016125115 
 9920000    1.3530875   -3.7927851   0.48916085    -1.443129 -8.9620905e-05 
 9921000   0.96049206   -3.7140312   0.19744535   -2.1959092 0.00060300647 
 9922000   0.86875742    -4.212801   0.15782572   -2.8604338 0.0001520218 
 9923000    1.0196577   -4.0199738   0.14337671   -2.4745677 -7.463474e-05 
 9924000    1.0273719   -4.0659441   0.42420444   -2.2291032 -2.2249923e-05 
 9925000   0.77122925   -4.1833485   0.47692689   -2.6459814 6.8653535e-05 
 9926000   0.66707909   -4.1066304   0.34410312   -2.8452935 -3.5511452e-05 
 9927000   0.89827165   -3.7653002   0.35065618   -2.1795205 0.0002808067 
 9928000    1.3188993   -4.4560143   0.73416617   -1.9083615 0.00010534929 
 9929000   0.63813093   -4.0143545   0.23383464   -2.9030898 -4.9570137e-05 
 9930000   0.90836272   -4.1937749   0.57248073   -2.3722954 -2.1423617e-05 
 9931000   0.83234098   -3.8042869   0.64699581   -2.0128223 -0.00021230919 
 9932000   0.82077939   -4.5120599   0.51861545   -2.8648728 2.190874e-05 
 9933000    1.0355601   -3.8427675   0.31004474   -2.1088275 8.8154314e-05 
 9934000   0.94354254   -4.1762544   0.31922625   -2.5596572 -0.00022258514 
 9935000   0.82912867   -4.1011362   0.50749649   -2.4535878 0.00014269445 
 9936000    1.0534985   -4.2110279    0.8009715   -1.9614959 -0.000360234 
 9937000   0.82437953   -4.1468533   0.50336159   -2.5099699 -0.00012683869 
 9938000   0.88097333   -3.9989138   0.57979364   -2.2077818 -0.00013069729 
 9939000   0.87693172   -4.1947248   0.42254453   -2.5663992 -2.8612443e-05 
 9940000    1.0104765   -4.1903292   0.38743372   -2.4134903 -1.5025073e-05 
 9941000    1.3646813   -4.1047726   0.24455487    -1.983781 0.00027610034 
 9942000   0.90978851   -4.0404922   0.39228407   -2.3972489 -0.00045856933 
 9943000    1.0400747    -3.950715   0.35975044   -2.1608618 0.0002095879 
 9944000    1.0009485   -4.0900503   0.27810746   -2.4356387 -0.00030817165 
 9945000   0.76609457   -3.9749525   0.28385422   -2.6377182 -5.2210099e-05 
 9946000    1.7978102   -3.3892647   0.47701778  -0.44025787 0.00054099011 
 9947000   0.61282283   -3.8945319   0.45164567   -2.6002548 -0.00011862787 
 9948000    1.1618042   -3.9792958   0.37960238   -2.0022126 -0.00041750862 
 9949000   0.95162716   -4.0101783   0.70777976   -1.9939111 -0.00025463016 
 9950000    0.9838416   -4.0050481   0.77381675   -1.8784492 4.6934046e-06 
 9951000   0.83147946   -4.2267192   0.32181586   -2.7616191 -0.00013133699 
 9952000    1.1923995   -4.1419183   0.28165072   -2.2207183 0.00033597987 
 9953000   0.66756197   -3.6844012  0.087429122   -2.6790744 0.00044212583 
 9954000     1.045716   -4.0839696   0.49311083   -2.1529993 -8.4721303e-05 
 9955000     1.673737   -4.1192864   0.42119251   -1.3967055 0.00012670219 
 9956000   0.82774298   -3.7153438   0.42839455   -2.1488027 0.0001180877 
 9957000    1.0379701    -3.988195   0.20521668   -2.3557694 0.00024353919 
 9958000    1.2276663   -4.1659805   0.38309195   -2.0948474 -2.8855385e-05 
 9959000    1.3146846   -4.0360879   0.60689347   -1.6215031 -0.00041133282 
 9960000    1.2170109   -4.3245546   0.49064963    -2.160515 -8.1724201e-05 
 9961000    1.3395708   -4.0916631   0.27333454   -1.9764186 2.7526216e-05 
 9962000   0.99026547   -4.3872958   0.70243635   -2.3232444 -0.00011083711 
 9963000    1.0219401   -4.0770973   0.37756066    -2.294369 -0.00010816549 
 9964000   0.80677271   -4.2067642   0.51162554   -2.5858261 -0.00015239962 
 9965000   0.87359942   -4.1970032    1.0599994   -1.9358046 -0.00022130642 
 9966000   0.74066232   -4.3425104   0.72074607   -2.6033536 -0.00036841421 
 9967000       1.2026   -3.6052015   0.32817126   -1.6234552 0.00020832114 
 9968000    1.0009341   -4.2693747   0.78254636   -2.1105441 0.0001172059 
 9969000   0.96567557   -3.7964121    0.3249346   -2.1436736 0.00036746206 
 9970000    1.0840317   -4.4872268   0.30205449   -2.6946288 -8.7291024e-05 
 9971000    1.0969933   -4.3167835    0.6699326   -2.1384852 5.110858e-05 
 9972000    1.0661713   -4.2662438    0.6481031   -2.1521552 -0.00030888588 
 9973000   0.98134543   -3.1562233   0.24353119   -1.5633421 1.9808511e-05 
 9974000   0.90654275   -3.9468582   0.38707493    -2.313287 -6.7450881e-05 
 9975000   0.89069069   -3.4958107   0.26462851   -2.0064825 1.9251192e-05 
 9976000    1.0014765   -3.8696584   0.18068746   -2.3119407 2.8088012e-05 
 9977000    1.1979607    -4.030191    1.0689543   -1.3140407 6.421398e-05 
 9978000    1.2138547   -4.1375823   0.48470742   -1.9838246 0.0001584779 
 9979000   0.85157224   -3.6149414      0.15053   -2.2934996 0.00019395533 
 9980000    0.8656997   -4.1420665   0.30216154   -2.6495678 4.6609297e-05 
 9981000    1.1435285    -3.670544   0.33333171   -1.7648605 9.3304416e-06 
 9982000   0.60583572   -4.1238429   0.30817548   -2.9826433 -0.00012670412 
 9983000   0.90627736   -4.3069095   0.41177653   -2.6490016 -9.3391936e-05 
 9984000    1.1728108   -3.9649123   0.35181217   -2.0004852 0.00040727787 
 9985000   0.80658403   -4.3546707   0.64611854   -2.5994992 8.0756064e-06 
 9986000   0.45553248   -3.7654779   0.35985682    -2.779264 -0.00012619416 
 9987000    1.1436955   -3.6067296   0.32534178   -1.7088065 9.1133459e-05 
 9988000    0.9473998   -4.3946671   0.31003558   -2.7819568 0.00012536648 
 9989000    1.1511434   -3.5831118   0.62413723   -1.3761524 5.903539e-05 
 9990000   0.96493707   -4.0605281   0.45747458    -2.276265 -0.00017877278 
 9991000    1.0852177   -4.1665893   0.42067102    -2.253744 0.00036737582 
 9992000    1.1660801   -4.1295482   0.94394907    -1.582239 -0.00030108363 
 9993000    1.3272232   -3.8380929    0.4303725   -1.5827886 -0.00026885801 
 9994000    1.0285627   -4.2788793   0.28411818   -2.5804874 -0.00030094386 
 9995000    1.0772892   -4.1489386   0.58050677   -2.0871591   9.3608e-05 
 9996000    1.3962104   -3.7792828   0.71283411   -1.1466594 -9.109026e-06 
 9997000     1.077783   -4.3224474    0.3296434   -2.5108523 -0.00031455106 
 9998000   0.82511918   -3.6874863   0.61393564   -1.9390118 0.0001774756 
 9999000   0.75422806   -4.3799443   0.30076053   -3.0421202 7.6909757e-05 
10000000    1.0578531   -4.1692826   0.61600494   -2.0987296 -3.2024543e-05 
Loop time of 846.048 on 1 procs for 10000000 steps with 12 atoms

Performance: 5106092.990 tau/day, 11819.660 timesteps/s
99.6% CPU use with 1 MPI tasks x no OpenMP threads

MPI task timing breakdown:
Section |  min time  |  avg time  |  max time  |%varavg| %total
---------------------------------------------------------------
Pair    | 5.8509     | 5.8509     | 5.8509     |   0.0 |  0.69
Bond    | 2.7929     | 2.7929     | 2.7929     |   0.0 |  0.33
Neigh   | 15.387     | 15.387     | 15.387     |   0.0 |  1.82
Comm    | 729.02     | 729.02     | 729.02     |   0.0 | 86.17
Output  | 0.18135    | 0.18135    | 0.18135    |   0.0 |  0.02
Modify  | 90.461     | 90.461     | 90.461     |   0.0 | 10.69
Other   |            | 2.355      |            |       |  0.28

Nlocal:    12 ave 12 max 12 min
Histogram: 1 0 0 0 0 0 0 0 0 0
Nghost:    0 ave 0 max 0 min
Histogram: 1 0 0 0 0 0 0 0 0 0
Neighs:    29 ave 29 max 29 min
Histogram: 1 0 0 0 0 0 0 0 0 0

Total # of neighbors = 29
Ave neighs/atom = 2.41667
Ave special neighs/atom = 5
Neighbor list builds = 802941
Dangerous builds = 163290
Total wall time: 0:14:06
