LAMMPS (28 Feb 2019)
Total wall time: 0:00:00
